 Entering Gaussian System, Link 0=/kemi/andersx/programs/g09/g09
 Initial command:
 /kemi/andersx/programs/g09/l1.exe /scratch/5352363/Gau-60321.inp -scrdir=/scratch/5352363/
 Entering Link 1 = /kemi/andersx/programs/g09/l1.exe PID=     60326.
  
 Copyright (c) 1988,1990,1992,1993,1995,1998,2003,2009,2010,
            Gaussian, Inc.  All Rights Reserved.
  
 This is part of the Gaussian(R) 09 program.  It is based on
 the Gaussian(R) 03 system (copyright 2003, Gaussian, Inc.),
 the Gaussian(R) 98 system (copyright 1998, Gaussian, Inc.),
 the Gaussian(R) 94 system (copyright 1995, Gaussian, Inc.),
 the Gaussian 92(TM) system (copyright 1992, Gaussian, Inc.),
 the Gaussian 90(TM) system (copyright 1990, Gaussian, Inc.),
 the Gaussian 88(TM) system (copyright 1988, Gaussian, Inc.),
 the Gaussian 86(TM) system (copyright 1986, Carnegie Mellon
 University), and the Gaussian 82(TM) system (copyright 1983,
 Carnegie Mellon University). Gaussian is a federally registered
 trademark of Gaussian, Inc.
  
 This software contains proprietary and confidential information,
 including trade secrets, belonging to Gaussian, Inc.
  
 This software is provided under written license and may be
 used, copied, transmitted, or stored only in accord with that
 written license.
  
 The following legend is applicable only to US Government
 contracts under FAR:
  
                    RESTRICTED RIGHTS LEGEND
  
 Use, reproduction and disclosure by the US Government is
 subject to restrictions as set forth in subparagraphs (a)
 and (c) of the Commercial Computer Software - Restricted
 Rights clause in FAR 52.227-19.
  
 Gaussian, Inc.
 340 Quinnipiac St., Bldg. 40, Wallingford CT 06492
  
  
 ---------------------------------------------------------------
 Warning -- This program may not be used in any manner that
 competes with the business of Gaussian, Inc. or will provide
 assistance to any competitor of Gaussian, Inc.  The licensee
 of this program is prohibited from giving any competitor of
 Gaussian, Inc. access to this program.  By using this program,
 the user acknowledges that Gaussian, Inc. is engaged in the
 business of creating and licensing software in the field of
 computational chemistry and represents and warrants to the
 licensee that it is not a competitor of Gaussian, Inc. and that
 it will not use this program in any manner prohibited above.
 ---------------------------------------------------------------
  

 Cite this work as:
 Gaussian 09, Revision B.01,
 M. J. Frisch, G. W. Trucks, H. B. Schlegel, G. E. Scuseria, 
 M. A. Robb, J. R. Cheeseman, G. Scalmani, V. Barone, B. Mennucci, 
 G. A. Petersson, H. Nakatsuji, M. Caricato, X. Li, H. P. Hratchian, 
 A. F. Izmaylov, J. Bloino, G. Zheng, J. L. Sonnenberg, M. Hada, 
 M. Ehara, K. Toyota, R. Fukuda, J. Hasegawa, M. Ishida, T. Nakajima, 
 Y. Honda, O. Kitao, H. Nakai, T. Vreven, J. A. Montgomery, Jr., 
 J. E. Peralta, F. Ogliaro, M. Bearpark, J. J. Heyd, E. Brothers, 
 K. N. Kudin, V. N. Staroverov, T. Keith, R. Kobayashi, J. Normand, 
 K. Raghavachari, A. Rendell, J. C. Burant, S. S. Iyengar, J. Tomasi, 
 M. Cossi, N. Rega, J. M. Millam, M. Klene, J. E. Knox, J. B. Cross, 
 V. Bakken, C. Adamo, J. Jaramillo, R. Gomperts, R. E. Stratmann, 
 O. Yazyev, A. J. Austin, R. Cammi, C. Pomelli, J. W. Ochterski, 
 R. L. Martin, K. Morokuma, V. G. Zakrzewski, G. A. Voth, 
 P. Salvador, J. J. Dannenberg, S. Dapprich, A. D. Daniels, 
 O. Farkas, J. B. Foresman, J. V. Ortiz, J. Cioslowski, 
 and D. J. Fox, Gaussian, Inc., Wallingford CT, 2010.
 
 ******************************************
 Gaussian 09:  EM64L-G09RevB.01 12-Aug-2010
                18-Jan-2017 
 ******************************************
 %nprocshared=4
 Will use up to    4 processors via shared memory.
 %mem=3800MB
 ------------------------------
 # opt freq 6-31++g(d,p) wb97xd
 ------------------------------
 1/14=-1,18=20,19=15,26=3,38=1/1,3;
 2/9=110,12=2,17=6,18=5,40=1/2;
 3/5=1,6=6,7=1111,11=2,16=1,25=1,30=1,71=1,74=-58/1,2,3;
 4//1;
 5/5=2,38=5/2;
 6/7=2,8=2,9=2,10=2,28=1/1;
 7//1,2,3,16;
 1/14=-1,18=20,19=15/3(2);
 2/9=110/2;
 99//99;
 2/9=110/2;
 3/5=1,6=6,7=1111,11=2,16=1,25=1,30=1,71=1,74=-58/1,2,3;
 4/5=5,16=3/1;
 5/5=2,38=5/2;
 7//1,2,3,16;
 1/14=-1,18=20,19=15/3(-5);
 2/9=110/2;
 6/7=2,8=2,9=2,10=2,19=2,28=1/1;
 99/9=1/99;
 -------------------
 Title Card Required
 -------------------
 Symbolic Z-matrix:
 Charge =  0 Multiplicity = 1
 O                    -1.2104   -1.72633  -2.1782 
 H                    -2.08905  -1.37766  -2.35238 
 H                    -1.18532  -1.81821  -1.20773 
 N                    -1.10493  -2.01275   0.73458 
 H                    -1.03307  -1.12693   1.22546 
 H                    -0.25474  -2.53319   0.92917 
 H                    -1.87369  -2.52959   1.15022 
 

 GradGradGradGradGradGradGradGradGradGradGradGradGradGradGradGradGradGrad
 Berny optimization.
 Initialization pass.
                           ----------------------------
                           !    Initial Parameters    !
                           ! (Angstroms and Degrees)  !
 --------------------------                            --------------------------
 ! Name  Definition              Value          Derivative Info.                !
 --------------------------------------------------------------------------------
 ! R1    R(1,2)                  0.9612         estimate D2E/DX2                !
 ! R2    R(1,3)                  0.9751         estimate D2E/DX2                !
 ! R3    R(3,4)                  1.9537         estimate D2E/DX2                !
 ! R4    R(4,5)                  1.0153         estimate D2E/DX2                !
 ! R5    R(4,6)                  1.0156         estimate D2E/DX2                !
 ! R6    R(4,7)                  1.0153         estimate D2E/DX2                !
 ! A1    A(2,1,3)              103.7704         estimate D2E/DX2                !
 ! A2    A(3,4,5)              113.3725         estimate D2E/DX2                !
 ! A3    A(3,4,6)              106.0183         estimate D2E/DX2                !
 ! A4    A(3,4,7)              115.2466         estimate D2E/DX2                !
 ! A5    A(5,4,6)              107.1696         estimate D2E/DX2                !
 ! A6    A(5,4,7)              107.4453         estimate D2E/DX2                !
 ! A7    A(6,4,7)              107.13           estimate D2E/DX2                !
 ! A8    L(1,3,4,2,-1)         180.9371         estimate D2E/DX2                !
 ! A9    L(1,3,4,2,-2)         180.0371         estimate D2E/DX2                !
 ! D1    D(2,1,4,5)            -72.7732         estimate D2E/DX2                !
 ! D2    D(2,1,4,6)            170.074          estimate D2E/DX2                !
 ! D3    D(2,1,4,7)             51.8645         estimate D2E/DX2                !
 --------------------------------------------------------------------------------
 Trust Radius=3.00D-01 FncErr=1.00D-07 GrdErr=1.00D-06
 Number of steps in this run=     28 maximum allowed number of steps=    100.
 GradGradGradGradGradGradGradGradGradGradGradGradGradGradGradGradGradGrad

                          Input orientation:                          
 ---------------------------------------------------------------------
 Center     Atomic      Atomic             Coordinates (Angstroms)
 Number     Number       Type             X           Y           Z
 ---------------------------------------------------------------------
      1          8           0       -1.210404   -1.726333   -2.178200
      2          1           0       -2.089046   -1.377661   -2.352375
      3          1           0       -1.185319   -1.818211   -1.207728
      4          7           0       -1.104929   -2.012752    0.734582
      5          1           0       -1.033069   -1.126927    1.225463
      6          1           0       -0.254744   -2.533191    0.929169
      7          1           0       -1.873694   -2.529590    1.150220
 ---------------------------------------------------------------------
                    Distance matrix (angstroms):
                    1          2          3          4          5
     1  O    0.000000
     2  H    0.961208   0.000000
     3  H    0.975134   1.523491   0.000000
     4  N    2.928730   3.301686   1.953683   0.000000
     5  H    3.460586   3.738834   2.534062   1.015290   0.000000
     6  H    3.349634   3.932994   2.437928   1.015645   1.634368
     7  H    3.487629   3.693439   2.557311   1.015321   1.637002
                    6          7
     6  H    0.000000
     7  H    1.633975   0.000000
 Stoichiometry    H5NO
 Framework group  C1[X(H5NO)]
 Deg. of freedom    15
 Full point group                 C1      NOp   1
 Largest Abelian subgroup         C1      NOp   1
 Largest concise Abelian subgroup C1      NOp   1
                         Standard orientation:                         
 ---------------------------------------------------------------------
 Center     Atomic      Atomic             Coordinates (Angstroms)
 Number     Number       Type             X           Y           Z
 ---------------------------------------------------------------------
      1          8           0       -1.554002    0.104074   -0.000119
      2          1           0       -1.830494   -0.816508    0.000660
      3          1           0       -0.580157    0.053940   -0.000301
      4          7           0        1.372324   -0.014580    0.000070
      5          1           0        1.764956   -0.305798    0.889927
      6          1           0        1.686163    0.936401   -0.169267
      7          1           0        1.785283   -0.598569   -0.720553
 ---------------------------------------------------------------------
 Rotational constants (GHZ):    144.3609080      6.3904279      6.3264151
 Standard basis: 6-31++G(d,p) (6D, 7F)
 There are    68 symmetry adapted basis functions of A   symmetry.
 Integral buffers will be    131072 words long.
 Raffenetti 2 integral format.
 Two-electron integral symmetry is turned on.
    68 basis functions,   104 primitive gaussians,    68 cartesian basis functions
    10 alpha electrons       10 beta electrons
       nuclear repulsion energy        38.8973466020 Hartrees.
 NAtoms=    7 NActive=    7 NUniq=    7 SFac= 1.00D+00 NAtFMM=   50 NAOKFM=F Big=F
 Nuclear repulsion after empirical dispersion term =       38.8961780746 Hartrees.
 One-electron integrals computed using PRISM.
 NBasis=    68 RedAO= T  NBF=    68
 NBsUse=    68 1.00D-06 NBFU=    68
 Harris functional with IExCor= 4639 diagonalized for initial guess.
 ExpMin= 3.60D-02 ExpMax= 5.48D+03 ExpMxC= 8.25D+02 IAcc=3 IRadAn=         0 AccDes= 0.00D+00
 HarFok:  IExCor= 4639 AccDes= 0.00D+00 IRadAn=         0 IDoV= 1
 ScaDFX=  1.000000  1.000000  1.000000  1.000000
 FoFCou: FMM=F IPFlag=           0 FMFlag=      100000 FMFlg1=           0
         NFxFlg=           0 DoJE=T BraDBF=F KetDBF=T FulRan=T
         Omega=  0.000000  0.000000  1.000000  0.000000  0.000000 ICntrl=     500 IOpCl=  0
         NMat0=    1 NMatS0=    1 NMatT0=    0 NMatD0=    1 NMtDS0=    0 NMtDT0=    0
         I1Cent=           4 NGrid=           0.
 Petite list used in FoFCou.
 Initial guess orbital symmetries:
       Occupied  (A) (A) (A) (A) (A) (A) (A) (A) (A) (A)
       Virtual   (A) (A) (A) (A) (A) (A) (A) (A) (A) (A) (A) (A)
                 (A) (A) (A) (A) (A) (A) (A) (A) (A) (A) (A) (A)
                 (A) (A) (A) (A) (A) (A) (A) (A) (A) (A) (A) (A)
                 (A) (A) (A) (A) (A) (A) (A) (A) (A) (A) (A) (A)
                 (A) (A) (A) (A) (A) (A) (A) (A) (A) (A)
 The electronic state of the initial guess is 1-A.
 Requested convergence on RMS density matrix=1.00D-08 within 128 cycles.
 Requested convergence on MAX density matrix=1.00D-06.
 Requested convergence on             energy=1.00D-06.
 No special actions if energy rises.
 FoFJK:  IHMeth= 1 ICntrl=     0 DoSepK=T KAlg= 1 I1Cent= 0 FoldK=F
 FoFJK:  IHMeth= 1 ICntrl=     0 DoSepK=T KAlg= 1 I1Cent= 0 FoldK=F
 FoFJK:  IHMeth= 1 ICntrl=     0 DoSepK=T KAlg= 1 I1Cent= 0 FoldK=F
 FoFJK:  IHMeth= 1 ICntrl=     0 DoSepK=T KAlg= 1 I1Cent= 0 FoldK=F
 FoFJK:  IHMeth= 1 ICntrl=     0 DoSepK=T KAlg= 1 I1Cent= 0 FoldK=F
 FoFJK:  IHMeth= 1 ICntrl=     0 DoSepK=T KAlg= 1 I1Cent= 0 FoldK=F
 FoFJK:  IHMeth= 1 ICntrl=     0 DoSepK=T KAlg= 1 I1Cent= 0 FoldK=F
 FoFJK:  IHMeth= 1 ICntrl=     0 DoSepK=T KAlg= 1 I1Cent= 0 FoldK=F
 FoFJK:  IHMeth= 1 ICntrl=     0 DoSepK=T KAlg= 1 I1Cent= 0 FoldK=F
 FoFJK:  IHMeth= 1 ICntrl=     0 DoSepK=T KAlg= 1 I1Cent= 0 FoldK=F
 FoFJK:  IHMeth= 1 ICntrl=     0 DoSepK=T KAlg= 1 I1Cent= 0 FoldK=F
 SCF Done:  E(RwB97XD) =  -132.969251373     A.U. after   11 cycles
             Convg  =    0.3698D-08             -V/T =  2.0094

 **********************************************************************

            Population analysis using the SCF density.

 **********************************************************************

 Orbital symmetries:
       Occupied  (A) (A) (A) (A) (A) (A) (A) (A) (A) (A)
       Virtual   (A) (A) (A) (A) (A) (A) (A) (A) (A) (A) (A) (A)
                 (A) (A) (A) (A) (A) (A) (A) (A) (A) (A) (A) (A)
                 (A) (A) (A) (A) (A) (A) (A) (A) (A) (A) (A) (A)
                 (A) (A) (A) (A) (A) (A) (A) (A) (A) (A) (A) (A)
                 (A) (A) (A) (A) (A) (A) (A) (A) (A) (A)
 The electronic state is 1-A.
 Alpha  occ. eigenvalues --  -19.24320 -14.46674  -1.07647  -0.98278  -0.58426
 Alpha  occ. eigenvalues --   -0.57837  -0.57602  -0.45002  -0.38186  -0.36550
 Alpha virt. eigenvalues --    0.03017   0.06794   0.07004   0.07593   0.11803
 Alpha virt. eigenvalues --    0.18772   0.21237   0.22024   0.23777   0.25928
 Alpha virt. eigenvalues --    0.26241   0.27379   0.29480   0.29717   0.34099
 Alpha virt. eigenvalues --    0.34238   0.42600   0.46364   0.97206   0.97250
 Alpha virt. eigenvalues --    0.99791   1.00599   1.03862   1.07803   1.19022
 Alpha virt. eigenvalues --    1.21021   1.24897   1.28100   1.30223   1.44134
 Alpha virt. eigenvalues --    1.46663   1.47878   1.60982   1.64650   1.69958
 Alpha virt. eigenvalues --    1.76054   2.01730   2.14166   2.31034   2.32448
 Alpha virt. eigenvalues --    2.41372   2.44845   2.45408   2.46121   2.66176
 Alpha virt. eigenvalues --    2.76158   2.80376   2.88723   3.01993   3.02269
 Alpha virt. eigenvalues --    3.15842   3.35910   3.51884   3.52225   3.55095
 Alpha virt. eigenvalues --    3.78070   4.15104   4.31910
          Condensed to atoms (all electrons):
              1          2          3          4          5          6
     1  O    8.227038   0.270191   0.294024  -0.039193  -0.001941  -0.002892
     2  H    0.270191   0.426706  -0.036551   0.008789  -0.000382   0.001526
     3  H    0.294024  -0.036551   0.354129  -0.045196   0.000395   0.000672
     4  N   -0.039193   0.008789  -0.045196   7.028963   0.340404   0.342003
     5  H   -0.001941  -0.000382   0.000395   0.340404   0.413857  -0.034959
     6  H   -0.002892   0.001526   0.000672   0.342003  -0.034959   0.403405
     7  H   -0.001349  -0.000960   0.000755   0.340174  -0.035789  -0.034591
              7
     1  O   -0.001349
     2  H   -0.000960
     3  H    0.000755
     4  N    0.340174
     5  H   -0.035789
     6  H   -0.034591
     7  H    0.415640
 Mulliken atomic charges:
              1
     1  O   -0.745879
     2  H    0.330680
     3  H    0.431773
     4  N   -0.975944
     5  H    0.318415
     6  H    0.324836
     7  H    0.316119
 Sum of Mulliken atomic charges =   0.00000
 Mulliken charges with hydrogens summed into heavy atoms:
              1
     1  O    0.016574
     4  N   -0.016574
 Sum of Mulliken charges with hydrogens summed into heavy atoms =   0.00000
 Electronic spatial extent (au):  <R**2>=            203.4275
 Charge=              0.0000 electrons
 Dipole moment (field-independent basis, Debye):
    X=              3.8380    Y=             -1.6578    Z=              0.0011  Tot=              4.1808
 Quadrupole moment (field-independent basis, Debye-Ang):
   XX=            -13.4065   YY=            -11.9971   ZZ=            -14.0033
   XY=              3.6709   XZ=             -0.0060   YZ=             -0.0036
 Traceless Quadrupole moment (field-independent basis, Debye-Ang):
   XX=             -0.2709   YY=              1.1385   ZZ=             -0.8677
   XY=              3.6709   XZ=             -0.0060   YZ=             -0.0036
 Octapole moment (field-independent basis, Debye-Ang**2):
  XXX=              9.0095  YYY=             -0.8796  ZZZ=              0.5149  XYY=              0.6489
  XXY=             -7.5612  XXZ=             -0.0071  XZZ=              4.2286  YZZ=             -1.1830
  YYZ=             -0.5076  XYZ=              0.0319
 Hexadecapole moment (field-independent basis, Debye-Ang**3):
 XXXX=           -208.6719 YYYY=            -17.1729 ZZZZ=            -17.9108 XXXY=             13.9808
 XXXZ=             -0.0559 YYYX=              5.6451 YYYZ=             -0.0346 ZZZX=              0.9302
 ZZZY=              0.0056 XXYY=            -29.8275 XXZZ=            -35.2266 YYZZ=             -6.0811
 XXYZ=              0.1110 YYXZ=             -0.9296 ZZXY=             -0.6826
 N-N= 3.889617807462D+01 E-N=-3.899740804849D+02  KE= 1.317275011995D+02
 Calling FoFJK, ICntrl=      2127 FMM=F ISym2X=0 I1Cent= 0 IOpClX= 0 NMat=1 NMatS=1 NMatT=0.
 FoFJK:  IHMeth= 1 ICntrl=  2127 DoSepK=T KAlg= 1 I1Cent= 0 FoldK=F
 ***** Axes restored to original set *****
 -------------------------------------------------------------------
 Center     Atomic                   Forces (Hartrees/Bohr)
 Number     Number              X              Y              Z
 -------------------------------------------------------------------
      1        8          -0.003608009    0.001225576    0.001740864
      2        1           0.001439271   -0.000325319   -0.002607280
      3        1           0.002047319   -0.000898523    0.001409036
      4        7           0.000389548   -0.000368171    0.001613931
      5        1          -0.000146852    0.000012809   -0.000676560
      6        1          -0.000099944    0.000150628   -0.000828707
      7        1          -0.000021334    0.000203000   -0.000651283
 -------------------------------------------------------------------
 Cartesian Forces:  Max     0.003608009 RMS     0.001346365

 GradGradGradGradGradGradGradGradGradGradGradGradGradGradGradGradGradGrad
 Berny optimization.
 Internal  Forces:  Max     0.005150288 RMS     0.001337389
 Search for a local minimum.
 Step number   1 out of a maximum of   28
 All quantities printed in internal units (Hartrees-Bohrs-Radians)
 Mixed Optimization -- RFO/linear search
 Second derivative matrix not updated -- first step.
 The second derivative matrix:
                          R1        R2        R3        R4        R5
           R1           0.55214
           R2           0.00000   0.52342
           R3           0.00000   0.00000   0.04654
           R4           0.00000   0.00000   0.00000   0.45098
           R5           0.00000   0.00000   0.00000   0.00000   0.45040
           R6           0.00000   0.00000   0.00000   0.00000   0.00000
           A1           0.00000   0.00000   0.00000   0.00000   0.00000
           A2           0.00000   0.00000   0.00000   0.00000   0.00000
           A3           0.00000   0.00000   0.00000   0.00000   0.00000
           A4           0.00000   0.00000   0.00000   0.00000   0.00000
           A5           0.00000   0.00000   0.00000   0.00000   0.00000
           A6           0.00000   0.00000   0.00000   0.00000   0.00000
           A7           0.00000   0.00000   0.00000   0.00000   0.00000
           A8           0.00000   0.00000   0.00000   0.00000   0.00000
           A9           0.00000   0.00000   0.00000   0.00000   0.00000
           D1           0.00000   0.00000   0.00000   0.00000   0.00000
           D2           0.00000   0.00000   0.00000   0.00000   0.00000
           D3           0.00000   0.00000   0.00000   0.00000   0.00000
                          R6        A1        A2        A3        A4
           R6           0.45093
           A1           0.00000   0.16000
           A2           0.00000   0.00000   0.16000
           A3           0.00000   0.00000   0.00000   0.16000
           A4           0.00000   0.00000   0.00000   0.00000   0.16000
           A5           0.00000   0.00000   0.00000   0.00000   0.00000
           A6           0.00000   0.00000   0.00000   0.00000   0.00000
           A7           0.00000   0.00000   0.00000   0.00000   0.00000
           A8           0.00000   0.00000   0.00000   0.00000   0.00000
           A9           0.00000   0.00000   0.00000   0.00000   0.00000
           D1           0.00000   0.00000   0.00000   0.00000   0.00000
           D2           0.00000   0.00000   0.00000   0.00000   0.00000
           D3           0.00000   0.00000   0.00000   0.00000   0.00000
                          A5        A6        A7        A8        A9
           A5           0.16000
           A6           0.00000   0.16000
           A7           0.00000   0.00000   0.16000
           A8           0.00000   0.00000   0.00000   0.00230
           A9           0.00000   0.00000   0.00000   0.00000   0.00230
           D1           0.00000   0.00000   0.00000   0.00000   0.00000
           D2           0.00000   0.00000   0.00000   0.00000   0.00000
           D3           0.00000   0.00000   0.00000   0.00000   0.00000
                          D1        D2        D3
           D1           0.00230
           D2           0.00000   0.00230
           D3           0.00000   0.00000   0.00230
 ITU=  0
     Eigenvalues ---    0.00230   0.00230   0.00230   0.04654   0.09011
     Eigenvalues ---    0.10062   0.16000   0.16000   0.16000   0.16000
     Eigenvalues ---    0.45040   0.45093   0.45098   0.52341   0.55214
 RFO step:  Lambda=-4.79943869D-04 EMin= 2.30000000D-03
 Linear search not attempted -- first point.
 Maximum step size (   0.300) exceeded in Quadratic search.
    -- Step size scaled by   0.939
 Iteration  1 RMS(Cart)=  0.09319388 RMS(Int)=  0.02518723
 Iteration  2 RMS(Cart)=  0.04131299 RMS(Int)=  0.00169611
 Iteration  3 RMS(Cart)=  0.00227445 RMS(Int)=  0.00063630
 Iteration  4 RMS(Cart)=  0.00000092 RMS(Int)=  0.00063630
 Variable       Old X    -DE/DX   Delta X   Delta X   Delta X     New X
                                 (Linear)    (Quad)   (Total)
    R1        1.81642  -0.00096   0.00000  -0.00163  -0.00163   1.81479
    R2        1.84274   0.00100   0.00000   0.00179   0.00176   1.84449
    R3        3.69193  -0.00054   0.00000  -0.01068  -0.01066   3.68126
    R4        1.91862  -0.00033   0.00000  -0.00068  -0.00068   1.91794
    R5        1.91929  -0.00032   0.00000  -0.00066  -0.00066   1.91863
    R6        1.91868  -0.00035   0.00000  -0.00074  -0.00074   1.91794
    A1        1.81113   0.00515   0.00000   0.03013   0.03013   1.84126
    A2        1.97872  -0.00054   0.00000  -0.00330  -0.00395   1.97477
    A3        1.85037  -0.00075   0.00000  -0.00413  -0.00342   1.84695
    A4        2.01143  -0.00047   0.00000  -0.00285  -0.00306   2.00837
    A5        1.87046   0.00069   0.00000   0.00429   0.00438   1.87484
    A6        1.87527   0.00049   0.00000   0.00242   0.00146   1.87673
    A7        1.86977   0.00072   0.00000   0.00449   0.00566   1.87543
    A8        3.15795   0.00091   0.00000   0.29808   0.29774   3.45569
    A9        3.14224   0.00001   0.00000   0.00308   0.00314   3.14538
    D1       -1.27013  -0.00003   0.00000  -0.03944  -0.04021  -1.31035
    D2        2.96835   0.00003   0.00000   0.00592   0.00504   2.97339
    D3        0.90521   0.00002   0.00000   0.03681   0.03840   0.94361
         Item               Value     Threshold  Converged?
 Maximum Force            0.005150     0.000450     NO 
 RMS     Force            0.001337     0.000300     NO 
 Maximum Displacement     0.322869     0.001800     NO 
 RMS     Displacement     0.130645     0.001200     NO 
 Predicted change in Energy=-2.607051D-04
 GradGradGradGradGradGradGradGradGradGradGradGradGradGradGradGradGradGrad

                          Input orientation:                          
 ---------------------------------------------------------------------
 Center     Atomic      Atomic             Coordinates (Angstroms)
 Number     Number       Type             X           Y           Z
 ---------------------------------------------------------------------
      1          8           0       -1.193248   -1.737479   -2.121645
      2          1           0       -2.001973   -1.396667   -2.511615
      3          1           0       -1.356174   -1.758008   -1.159494
      4          7           0       -1.110773   -2.012887    0.756145
      5          1           0       -1.004742   -1.140748    1.264293
      6          1           0       -0.243640   -2.531161    0.857614
      7          1           0       -1.840657   -2.547714    1.215832
 ---------------------------------------------------------------------
                    Distance matrix (angstroms):
                    1          2          3          4          5
     1  O    0.000000
     2  H    0.960347   0.000000
     3  H    0.976063   1.541380   0.000000
     4  N    2.892114   3.442705   1.948040   0.000000
     5  H    3.443283   3.913751   2.525720   1.014930   0.000000
     6  H    3.226092   3.966171   2.429861   1.015295   1.636433
     7  H    3.494906   3.904458   2.549615   1.014931   1.637272
                    6          7
     6  H    0.000000
     7  H    1.636783   0.000000
 Stoichiometry    H5NO
 Framework group  C1[X(H5NO)]
 Deg. of freedom    15
 Full point group                 C1      NOp   1
 Largest Abelian subgroup         C1      NOp   1
 Largest concise Abelian subgroup C1      NOp   1
                         Standard orientation:                         
 ---------------------------------------------------------------------
 Center     Atomic      Atomic             Coordinates (Angstroms)
 Number     Number       Type             X           Y           Z
 ---------------------------------------------------------------------
      1          8           0       -1.522653    0.109495   -0.000071
      2          1           0       -2.003782   -0.721637    0.000449
      3          1           0       -0.577977   -0.136034   -0.000836
      4          7           0        1.366579   -0.019579   -0.000102
      5          1           0        1.781203   -0.275070    0.890344
      6          1           0        1.585451    0.957502   -0.168127
      7          1           0        1.830277   -0.563667   -0.720545
 ---------------------------------------------------------------------
 Rotational constants (GHZ):    150.0525057      6.4863768      6.4313436
 Standard basis: 6-31++G(d,p) (6D, 7F)
 There are    68 symmetry adapted basis functions of A   symmetry.
 Integral buffers will be    131072 words long.
 Raffenetti 2 integral format.
 Two-electron integral symmetry is turned on.
    68 basis functions,   104 primitive gaussians,    68 cartesian basis functions
    10 alpha electrons       10 beta electrons
       nuclear repulsion energy        39.0225698349 Hartrees.
 NAtoms=    7 NActive=    7 NUniq=    7 SFac= 1.00D+00 NAtFMM=   50 NAOKFM=F Big=F
 Nuclear repulsion after empirical dispersion term =       39.0214157252 Hartrees.
 One-electron integrals computed using PRISM.
 NBasis=    68 RedAO= T  NBF=    68
 NBsUse=    68 1.00D-06 NBFU=    68
 Initial guess read from the read-write file.
 B after Tr=     0.000000    0.000000    0.000000
         Rot=    1.000000    0.000000    0.000000    0.000000 Ang=   0.00 deg.
 Initial guess orbital symmetries:
       Occupied  (A) (A) (A) (A) (A) (A) (A) (A) (A) (A)
       Virtual   (A) (A) (A) (A) (A) (A) (A) (A) (A) (A) (A) (A)
                 (A) (A) (A) (A) (A) (A) (A) (A) (A) (A) (A) (A)
                 (A) (A) (A) (A) (A) (A) (A) (A) (A) (A) (A) (A)
                 (A) (A) (A) (A) (A) (A) (A) (A) (A) (A) (A) (A)
                 (A) (A) (A) (A) (A) (A) (A) (A) (A) (A)
 Harris functional with IExCor= 4639 diagonalized for initial guess.
 ExpMin= 3.60D-02 ExpMax= 5.48D+03 ExpMxC= 8.25D+02 IAcc=3 IRadAn=         0 AccDes= 0.00D+00
 HarFok:  IExCor= 4639 AccDes= 0.00D+00 IRadAn=         0 IDoV= 1
 ScaDFX=  1.000000  1.000000  1.000000  1.000000
 FoFCou: FMM=F IPFlag=           0 FMFlag=      100000 FMFlg1=           0
         NFxFlg=           0 DoJE=T BraDBF=F KetDBF=T FulRan=T
         Omega=  0.000000  0.000000  1.000000  0.000000  0.000000 ICntrl=     500 IOpCl=  0
         NMat0=    1 NMatS0=    1 NMatT0=    0 NMatD0=    1 NMtDS0=    0 NMtDT0=    0
         I1Cent=           4 NGrid=           0.
 Petite list used in FoFCou.
 Requested convergence on RMS density matrix=1.00D-08 within 128 cycles.
 Requested convergence on MAX density matrix=1.00D-06.
 Requested convergence on             energy=1.00D-06.
 No special actions if energy rises.
 FoFJK:  IHMeth= 1 ICntrl=     0 DoSepK=T KAlg= 1 I1Cent= 0 FoldK=F
 FoFJK:  IHMeth= 1 ICntrl=     0 DoSepK=T KAlg= 1 I1Cent= 0 FoldK=F
 FoFJK:  IHMeth= 1 ICntrl=     0 DoSepK=T KAlg= 1 I1Cent= 0 FoldK=F
 FoFJK:  IHMeth= 1 ICntrl=     0 DoSepK=T KAlg= 1 I1Cent= 0 FoldK=F
 FoFJK:  IHMeth= 1 ICntrl=     0 DoSepK=T KAlg= 1 I1Cent= 0 FoldK=F
 FoFJK:  IHMeth= 1 ICntrl=     0 DoSepK=T KAlg= 1 I1Cent= 0 FoldK=F
 FoFJK:  IHMeth= 1 ICntrl=     0 DoSepK=T KAlg= 1 I1Cent= 0 FoldK=F
 FoFJK:  IHMeth= 1 ICntrl=     0 DoSepK=T KAlg= 1 I1Cent= 0 FoldK=F
 FoFJK:  IHMeth= 1 ICntrl=     0 DoSepK=T KAlg= 1 I1Cent= 0 FoldK=F
 FoFJK:  IHMeth= 1 ICntrl=     0 DoSepK=T KAlg= 1 I1Cent= 0 FoldK=F
 SCF Done:  E(RwB97XD) =  -132.969074502     A.U. after   10 cycles
             Convg  =    0.8155D-08             -V/T =  2.0094
 Calling FoFJK, ICntrl=      2127 FMM=F ISym2X=0 I1Cent= 0 IOpClX= 0 NMat=1 NMatS=1 NMatT=0.
 FoFJK:  IHMeth= 1 ICntrl=  2127 DoSepK=T KAlg= 1 I1Cent= 0 FoldK=F
 ***** Axes restored to original set *****
 -------------------------------------------------------------------
 Center     Atomic                   Forces (Hartrees/Bohr)
 Number     Number              X              Y              Z
 -------------------------------------------------------------------
      1        8          -0.004139256    0.001516374    0.000611475
      2        1           0.001079158   -0.000296017   -0.001362321
      3        1           0.004585358   -0.001814816    0.000935122
      4        7          -0.001594429    0.000464339    0.001579886
      5        1           0.000094930    0.000013102   -0.000290998
      6        1          -0.000238256    0.000193947   -0.001424958
      7        1           0.000212495   -0.000076930   -0.000048206
 -------------------------------------------------------------------
 Cartesian Forces:  Max     0.004585358 RMS     0.001627654

 GradGradGradGradGradGradGradGradGradGradGradGradGradGradGradGradGradGrad
 Berny optimization.
 Using GEDIIS/GDIIS optimizer.
 Internal  Forces:  Max     0.003185213 RMS     0.001209428
 Search for a local minimum.
 Step number   2 out of a maximum of   28
 All quantities printed in internal units (Hartrees-Bohrs-Radians)
 Mixed Optimization -- RFO/linear search
 Update second derivatives using D2CorX and points    2    1
 DE=  1.77D-04 DEPred=-2.61D-04 R=-6.78D-01
 Trust test=-6.78D-01 RLast= 3.05D-01 DXMaxT set to 1.50D-01
 The second derivative matrix:
                          R1        R2        R3        R4        R5
           R1           0.55021
           R2           0.00188   0.52164
           R3          -0.00114   0.00115   0.04590
           R4          -0.00065   0.00062  -0.00039   0.45077
           R5          -0.00076   0.00080  -0.00040  -0.00026   0.45018
           R6          -0.00070   0.00067  -0.00042  -0.00023  -0.00028
           A1           0.01060  -0.01044   0.00616   0.00356   0.00399
           A2          -0.00127   0.00118  -0.00079  -0.00042  -0.00056
           A3          -0.00184   0.00216  -0.00081  -0.00067  -0.00029
           A4          -0.00074   0.00055  -0.00057  -0.00022  -0.00049
           A5           0.00158  -0.00157   0.00090   0.00053   0.00057
           A6           0.00058  -0.00060   0.00031   0.00020   0.00018
           A7           0.00204  -0.00203   0.00116   0.00069   0.00074
           A8           0.00002   0.00077   0.00061  -0.00010   0.00095
           A9           0.00002  -0.00001   0.00001   0.00001   0.00001
           D1          -0.00030   0.00035  -0.00014  -0.00011  -0.00005
           D2           0.00001   0.00000   0.00001   0.00000   0.00001
           D3           0.00030  -0.00035   0.00013   0.00011   0.00005
                          R6        A1        A2        A3        A4
           R6           0.45068
           A1           0.00386   0.10214
           A2          -0.00045   0.00707   0.15922
           A3          -0.00072   0.00923  -0.00157   0.16078
           A4          -0.00024   0.00448  -0.00032  -0.00190   0.16028
           A5           0.00058  -0.00856   0.00107   0.00124   0.00073
           A6           0.00022  -0.00307   0.00042   0.00026   0.00036
           A7           0.00075  -0.01105   0.00138   0.00160   0.00094
           A8          -0.00011  -0.00206  -0.00076   0.00553  -0.00258
           A9           0.00001  -0.00008   0.00001   0.00002   0.00000
           D1          -0.00012   0.00151  -0.00025   0.00009  -0.00029
           D2           0.00000  -0.00007   0.00000   0.00007  -0.00002
           D3           0.00012  -0.00150   0.00026  -0.00013   0.00031
                          A5        A6        A7        A8        A9
           A5           0.15874
           A6          -0.00044   0.15986
           A7          -0.00163  -0.00057   0.15790
           A8          -0.00059  -0.00063  -0.00076   0.01425
           A9          -0.00001   0.00000  -0.00002   0.00000   0.00230
           D1           0.00020   0.00005   0.00026   0.00083   0.00000
           D2          -0.00001  -0.00001  -0.00002   0.00013   0.00000
           D3          -0.00020  -0.00004  -0.00026  -0.00092   0.00000
                          D1        D2        D3
           D1           0.00231
           D2           0.00001   0.00230
           D3          -0.00002  -0.00001   0.00232
 ITU= -1  0
 Use linear search instead of GDIIS.
 Quartic linear search produced a step of -0.63715.
 Iteration  1 RMS(Cart)=  0.08074004 RMS(Int)=  0.00617506
 Iteration  2 RMS(Cart)=  0.00855084 RMS(Int)=  0.00014404
 Iteration  3 RMS(Cart)=  0.00001507 RMS(Int)=  0.00014378
 Iteration  4 RMS(Cart)=  0.00000000 RMS(Int)=  0.00014378
 Variable       Old X    -DE/DX   Delta X   Delta X   Delta X     New X
                                 (Linear)    (Quad)   (Total)
    R1        1.81479  -0.00046   0.00104   0.00000   0.00104   1.81583
    R2        1.84449   0.00025  -0.00112   0.00000  -0.00112   1.84338
    R3        3.68126  -0.00045   0.00679   0.00000   0.00679   3.68805
    R4        1.91794  -0.00012   0.00043   0.00000   0.00043   1.91837
    R5        1.91863  -0.00045   0.00042   0.00000   0.00042   1.91905
    R6        1.91794  -0.00013   0.00047   0.00000   0.00047   1.91841
    A1        1.84126   0.00309  -0.01920   0.00000  -0.01920   1.82207
    A2        1.97477   0.00005   0.00252   0.00000   0.00266   1.97743
    A3        1.84695  -0.00216   0.00218   0.00000   0.00203   1.84898
    A4        2.00837   0.00061   0.00195   0.00000   0.00198   2.01035
    A5        1.87484   0.00048  -0.00279   0.00000  -0.00281   1.87204
    A6        1.87673   0.00055  -0.00093   0.00000  -0.00070   1.87603
    A7        1.87543   0.00045  -0.00360   0.00000  -0.00386   1.87156
    A8        3.45569  -0.00319  -0.18970   0.00000  -0.18963   3.26605
    A9        3.14538   0.00000  -0.00200   0.00000  -0.00203   3.14336
    D1       -1.31035  -0.00024   0.02562   0.00000   0.02579  -1.28455
    D2        2.97339  -0.00002  -0.00321   0.00000  -0.00301   2.97038
    D3        0.94361   0.00025  -0.02447   0.00000  -0.02483   0.91877
         Item               Value     Threshold  Converged?
 Maximum Force            0.003185     0.000450     NO 
 RMS     Force            0.001209     0.000300     NO 
 Maximum Displacement     0.207020     0.001800     NO 
 RMS     Displacement     0.082663     0.001200     NO 
 Predicted change in Energy=-8.714245D-05
 GradGradGradGradGradGradGradGradGradGradGradGradGradGradGradGradGradGrad

                          Input orientation:                          
 ---------------------------------------------------------------------
 Center     Atomic      Atomic             Coordinates (Angstroms)
 Number     Number       Type             X           Y           Z
 ---------------------------------------------------------------------
      1          8           0       -1.202830   -1.730493   -2.162016
      2          1           0       -2.061497   -1.382414   -2.416675
      3          1           0       -1.246624   -1.796767   -1.189783
      4          7           0       -1.106636   -2.013100    0.744766
      5          1           0       -1.022520   -1.132200    1.242249
      6          1           0       -0.249422   -2.533191    0.905906
      7          1           0       -1.861677   -2.536500    1.176685
 ---------------------------------------------------------------------
                    Distance matrix (angstroms):
                    1          2          3          4          5
     1  O    0.000000
     2  H    0.960895   0.000000
     3  H    0.975473   1.530023   0.000000
     4  N    2.922072   3.362177   1.951635   0.000000
     5  H    3.461140   3.811798   2.531137   1.015159   0.000000
     6  H    3.311413   3.955686   2.434881   1.015518   1.635110
     7  H    3.497236   3.779429   2.554539   1.015179   1.637235
                    6          7
     6  H    0.000000
     7  H    1.634839   0.000000
 Stoichiometry    H5NO
 Framework group  C1[X(H5NO)]
 Deg. of freedom    15
 Full point group                 C1      NOp   1
 Largest Abelian subgroup         C1      NOp   1
 Largest concise Abelian subgroup C1      NOp   1
                         Standard orientation:                         
 ---------------------------------------------------------------------
 Center     Atomic      Atomic             Coordinates (Angstroms)
 Number     Number       Type             X           Y           Z
 ---------------------------------------------------------------------
      1          8           0       -1.546076    0.106898   -0.000087
      2          1           0       -1.899437   -0.786666    0.000520
      3          1           0       -0.578252   -0.015019   -0.000588
      4          7           0        1.373382   -0.016671    0.000031
      5          1           0        1.774380   -0.295178    0.890078
      6          1           0        1.653116    0.944851   -0.168793
      7          1           0        1.805126   -0.586470   -0.720742
 ---------------------------------------------------------------------
 Rotational constants (GHZ):    146.3296471      6.3975406      6.3371875
 Standard basis: 6-31++G(d,p) (6D, 7F)
 There are    68 symmetry adapted basis functions of A   symmetry.
 Integral buffers will be    131072 words long.
 Raffenetti 2 integral format.
 Two-electron integral symmetry is turned on.
    68 basis functions,   104 primitive gaussians,    68 cartesian basis functions
    10 alpha electrons       10 beta electrons
       nuclear repulsion energy        38.9067734903 Hartrees.
 NAtoms=    7 NActive=    7 NUniq=    7 SFac= 1.00D+00 NAtFMM=   50 NAOKFM=F Big=F
 Nuclear repulsion after empirical dispersion term =       38.9056144830 Hartrees.
 One-electron integrals computed using PRISM.
 NBasis=    68 RedAO= T  NBF=    68
 NBsUse=    68 1.00D-06 NBFU=    68
 Initial guess read from the read-write file.
 B after Tr=     0.000000    0.000000    0.000000
         Rot=    1.000000    0.000000    0.000000    0.000000 Ang=   0.00 deg.
 Initial guess orbital symmetries:
       Occupied  (A) (A) (A) (A) (A) (A) (A) (A) (A) (A)
       Virtual   (A) (A) (A) (A) (A) (A) (A) (A) (A) (A) (A) (A)
                 (A) (A) (A) (A) (A) (A) (A) (A) (A) (A) (A) (A)
                 (A) (A) (A) (A) (A) (A) (A) (A) (A) (A) (A) (A)
                 (A) (A) (A) (A) (A) (A) (A) (A) (A) (A) (A) (A)
                 (A) (A) (A) (A) (A) (A) (A) (A) (A) (A)
 Harris functional with IExCor= 4639 diagonalized for initial guess.
 ExpMin= 3.60D-02 ExpMax= 5.48D+03 ExpMxC= 8.25D+02 IAcc=3 IRadAn=         0 AccDes= 0.00D+00
 HarFok:  IExCor= 4639 AccDes= 0.00D+00 IRadAn=         0 IDoV= 1
 ScaDFX=  1.000000  1.000000  1.000000  1.000000
 FoFCou: FMM=F IPFlag=           0 FMFlag=      100000 FMFlg1=           0
         NFxFlg=           0 DoJE=T BraDBF=F KetDBF=T FulRan=T
         Omega=  0.000000  0.000000  1.000000  0.000000  0.000000 ICntrl=     500 IOpCl=  0
         NMat0=    1 NMatS0=    1 NMatT0=    0 NMatD0=    1 NMtDS0=    0 NMtDT0=    0
         I1Cent=           4 NGrid=           0.
 Petite list used in FoFCou.
 Requested convergence on RMS density matrix=1.00D-08 within 128 cycles.
 Requested convergence on MAX density matrix=1.00D-06.
 Requested convergence on             energy=1.00D-06.
 No special actions if energy rises.
 FoFJK:  IHMeth= 1 ICntrl=     0 DoSepK=T KAlg= 1 I1Cent= 0 FoldK=F
 FoFJK:  IHMeth= 1 ICntrl=     0 DoSepK=T KAlg= 1 I1Cent= 0 FoldK=F
 FoFJK:  IHMeth= 1 ICntrl=     0 DoSepK=T KAlg= 1 I1Cent= 0 FoldK=F
 FoFJK:  IHMeth= 1 ICntrl=     0 DoSepK=T KAlg= 1 I1Cent= 0 FoldK=F
 FoFJK:  IHMeth= 1 ICntrl=     0 DoSepK=T KAlg= 1 I1Cent= 0 FoldK=F
 FoFJK:  IHMeth= 1 ICntrl=     0 DoSepK=T KAlg= 1 I1Cent= 0 FoldK=F
 FoFJK:  IHMeth= 1 ICntrl=     0 DoSepK=T KAlg= 1 I1Cent= 0 FoldK=F
 FoFJK:  IHMeth= 1 ICntrl=     0 DoSepK=T KAlg= 1 I1Cent= 0 FoldK=F
 FoFJK:  IHMeth= 1 ICntrl=     0 DoSepK=T KAlg= 1 I1Cent= 0 FoldK=F
 FoFJK:  IHMeth= 1 ICntrl=     0 DoSepK=T KAlg= 1 I1Cent= 0 FoldK=F
 SCF Done:  E(RwB97XD) =  -132.969333031     A.U. after   10 cycles
             Convg  =    0.5569D-08             -V/T =  2.0094
 Calling FoFJK, ICntrl=      2127 FMM=F ISym2X=0 I1Cent= 0 IOpClX= 0 NMat=1 NMatS=1 NMatT=0.
 FoFJK:  IHMeth= 1 ICntrl=  2127 DoSepK=T KAlg= 1 I1Cent= 0 FoldK=F
 ***** Axes restored to original set *****
 -------------------------------------------------------------------
 Center     Atomic                   Forces (Hartrees/Bohr)
 Number     Number              X              Y              Z
 -------------------------------------------------------------------
      1        8          -0.003839389    0.001339841    0.001365418
      2        1           0.001350087   -0.000330963   -0.002140850
      3        1           0.002949363   -0.001233199    0.001404694
      4        7          -0.000280851   -0.000089590    0.001390127
      5        1          -0.000085319    0.000012792   -0.000537048
      6        1          -0.000127590    0.000169354   -0.001047154
      7        1           0.000033699    0.000131766   -0.000435188
 -------------------------------------------------------------------
 Cartesian Forces:  Max     0.003839389 RMS     0.001393407

 GradGradGradGradGradGradGradGradGradGradGradGradGradGradGradGradGradGrad
 Berny optimization.
 Using GEDIIS/GDIIS optimizer.
 Internal  Forces:  Max     0.004431172 RMS     0.001167242
 Search for a local minimum.
 Step number   3 out of a maximum of   28
 All quantities printed in internal units (Hartrees-Bohrs-Radians)
 Mixed Optimization -- RFO/linear search
 Update second derivatives using D2CorX and points    2    1    3
 The second derivative matrix:
                          R1        R2        R3        R4        R5
           R1           0.55025
           R2           0.00185   0.52163
           R3          -0.00135   0.00144   0.04602
           R4          -0.00064   0.00063  -0.00046   0.45076
           R5          -0.00076   0.00080  -0.00035  -0.00026   0.45018
           R6          -0.00069   0.00068  -0.00050  -0.00024  -0.00028
           A1           0.01055  -0.01049   0.00694   0.00360   0.00398
           A2          -0.00123   0.00116  -0.00098  -0.00042  -0.00056
           A3          -0.00190   0.00217  -0.00031  -0.00066  -0.00029
           A4          -0.00072   0.00057  -0.00096  -0.00024  -0.00049
           A5           0.00157  -0.00158   0.00098   0.00054   0.00057
           A6           0.00060  -0.00064   0.00034   0.00021   0.00017
           A7           0.00201  -0.00200   0.00120   0.00068   0.00074
           A8          -0.00011   0.00073   0.00219  -0.00005   0.00093
           A9           0.00001  -0.00001   0.00001   0.00000   0.00001
           D1          -0.00028   0.00031  -0.00007  -0.00010  -0.00006
           D2           0.00002  -0.00001   0.00002   0.00001   0.00001
           D3           0.00028  -0.00031   0.00006   0.00010   0.00005
                          R6        A1        A2        A3        A4
           R6           0.45068
           A1           0.00388   0.10194
           A2          -0.00045   0.00703   0.15925
           A3          -0.00072   0.00921  -0.00162   0.16084
           A4          -0.00025   0.00458  -0.00030  -0.00189   0.16022
           A5           0.00058  -0.00858   0.00107   0.00124   0.00074
           A6           0.00023  -0.00316   0.00044   0.00021   0.00041
           A7           0.00074  -0.01097   0.00136   0.00166   0.00090
           A8          -0.00009  -0.00232  -0.00087   0.00558  -0.00244
           A9           0.00000  -0.00007   0.00001   0.00002   0.00000
           D1          -0.00011   0.00140  -0.00023   0.00004  -0.00024
           D2           0.00001  -0.00011   0.00000   0.00005  -0.00001
           D3           0.00011  -0.00138   0.00023  -0.00007   0.00025
                          A5        A6        A7        A8        A9
           A5           0.15874
           A6          -0.00045   0.15985
           A7          -0.00162  -0.00057   0.15791
           A8          -0.00063  -0.00082  -0.00060   0.01401
           A9          -0.00001   0.00000  -0.00002   0.00003   0.00230
           D1           0.00019   0.00003   0.00027   0.00064   0.00000
           D2          -0.00002  -0.00001  -0.00002   0.00006   0.00000
           D3          -0.00019  -0.00003  -0.00026  -0.00068   0.00000
                          D1        D2        D3
           D1           0.00229
           D2           0.00001   0.00230
           D3           0.00000  -0.00001   0.00230
 ITU=  0 -1  0
 Use linear search instead of GDIIS.
     Eigenvalues ---    0.00230   0.00230   0.01253   0.04513   0.08929
     Eigenvalues ---    0.09772   0.10208   0.16000   0.16000   0.16225
     Eigenvalues ---    0.45002   0.45076   0.45096   0.52183   0.55062
 RFO step:  Lambda=-2.68025600D-04 EMin= 2.29990833D-03
 Quartic linear search produced a step of -0.00090.
 Iteration  1 RMS(Cart)=  0.01231737 RMS(Int)=  0.00020931
 Iteration  2 RMS(Cart)=  0.00020823 RMS(Int)=  0.00000877
 Iteration  3 RMS(Cart)=  0.00000001 RMS(Int)=  0.00000877
 Variable       Old X    -DE/DX   Delta X   Delta X   Delta X     New X
                                 (Linear)    (Quad)   (Total)
    R1        1.81583  -0.00076   0.00000  -0.00247  -0.00247   1.81336
    R2        1.84338   0.00073   0.00000   0.00257   0.00257   1.84595
    R3        3.68805  -0.00068   0.00000  -0.02166  -0.02166   3.66640
    R4        1.91837  -0.00026   0.00000  -0.00103  -0.00103   1.91735
    R5        1.91905  -0.00036   0.00000  -0.00125  -0.00125   1.91780
    R6        1.91841  -0.00028   0.00000  -0.00111  -0.00111   1.91730
    A1        1.82207   0.00443  -0.00001   0.04778   0.04777   1.86983
    A2        1.97743  -0.00033   0.00000  -0.00444  -0.00445   1.97298
    A3        1.84898  -0.00124   0.00000  -0.01058  -0.01059   1.83839
    A4        2.01035  -0.00010   0.00000  -0.00234  -0.00236   2.00799
    A5        1.87204   0.00062   0.00000   0.00628   0.00626   1.87830
    A6        1.87603   0.00050   0.00000   0.00483   0.00482   1.88085
    A7        1.87156   0.00064   0.00000   0.00736   0.00735   1.87891
    A8        3.26605  -0.00055  -0.00010  -0.02046  -0.02055   3.24550
    A9        3.14336   0.00000   0.00000   0.00099   0.00098   3.14434
    D1       -1.28455  -0.00009   0.00001   0.00384   0.00385  -1.28070
    D2        2.97038   0.00002   0.00000   0.00195   0.00195   2.97232
    D3        0.91877   0.00008  -0.00001  -0.00102  -0.00103   0.91774
         Item               Value     Threshold  Converged?
 Maximum Force            0.004431     0.000450     NO 
 RMS     Force            0.001167     0.000300     NO 
 Maximum Displacement     0.030270     0.001800     NO 
 RMS     Displacement     0.012272     0.001200     NO 
 Predicted change in Energy=-1.344786D-04
 GradGradGradGradGradGradGradGradGradGradGradGradGradGradGradGradGradGrad

                          Input orientation:                          
 ---------------------------------------------------------------------
 Center     Atomic      Atomic             Coordinates (Angstroms)
 Number     Number       Type             X           Y           Z
 ---------------------------------------------------------------------
      1          8           0       -1.211749   -1.728435   -2.150678
      2          1           0       -2.060425   -1.380547   -2.432694
      3          1           0       -1.239719   -1.801097   -1.176951
      4          7           0       -1.106002   -2.013876    0.746879
      5          1           0       -1.022842   -1.130675    1.239306
      6          1           0       -0.247690   -2.533172    0.900402
      7          1           0       -1.862779   -2.536862    1.174867
 ---------------------------------------------------------------------
                    Distance matrix (angstroms):
                    1          2          3          4          5
     1  O    0.000000
     2  H    0.959589   0.000000
     3  H    0.976834   1.557983   0.000000
     4  N    2.913502   3.379602   1.940175   0.000000
     5  H    3.447462   3.823951   2.516903   1.014616   0.000000
     6  H    3.299409   3.965360   2.415668   1.014858   1.637899
     7  H    3.483768   3.793497   2.541772   1.014594   1.639210
                    6          7
     6  H    0.000000
     7  H    1.638249   0.000000
 Stoichiometry    H5NO
 Framework group  C1[X(H5NO)]
 Deg. of freedom    15
 Full point group                 C1      NOp   1
 Largest Abelian subgroup         C1      NOp   1
 Largest concise Abelian subgroup C1      NOp   1
                         Standard orientation:                         
 ---------------------------------------------------------------------
 Center     Atomic      Atomic             Coordinates (Angstroms)
 Number     Number       Type             X           Y           Z
 ---------------------------------------------------------------------
      1          8           0       -1.539666    0.105183   -0.000086
      2          1           0       -1.922331   -0.774804    0.000627
      3          1           0       -0.568860   -0.003167   -0.000955
      4          7           0        1.371264   -0.017214   -0.000097
      5          1           0        1.765987   -0.299285    0.891011
      6          1           0        1.646648    0.945167   -0.167200
      7          1           0        1.797037   -0.588884   -0.722115
 ---------------------------------------------------------------------
 Rotational constants (GHZ):    146.9286028      6.4295398      6.3702177
 Standard basis: 6-31++G(d,p) (6D, 7F)
 There are    68 symmetry adapted basis functions of A   symmetry.
 Integral buffers will be    131072 words long.
 Raffenetti 2 integral format.
 Two-electron integral symmetry is turned on.
    68 basis functions,   104 primitive gaussians,    68 cartesian basis functions
    10 alpha electrons       10 beta electrons
       nuclear repulsion energy        38.9575458804 Hartrees.
 NAtoms=    7 NActive=    7 NUniq=    7 SFac= 1.00D+00 NAtFMM=   50 NAOKFM=F Big=F
 Nuclear repulsion after empirical dispersion term =       38.9563779275 Hartrees.
 One-electron integrals computed using PRISM.
 NBasis=    68 RedAO= T  NBF=    68
 NBsUse=    68 1.00D-06 NBFU=    68
 Initial guess read from the read-write file.
 B after Tr=     0.000000    0.000000    0.000000
         Rot=    1.000000    0.000000    0.000000    0.000000 Ang=   0.00 deg.
 Initial guess orbital symmetries:
       Occupied  (A) (A) (A) (A) (A) (A) (A) (A) (A) (A)
       Virtual   (A) (A) (A) (A) (A) (A) (A) (A) (A) (A) (A) (A)
                 (A) (A) (A) (A) (A) (A) (A) (A) (A) (A) (A) (A)
                 (A) (A) (A) (A) (A) (A) (A) (A) (A) (A) (A) (A)
                 (A) (A) (A) (A) (A) (A) (A) (A) (A) (A) (A) (A)
                 (A) (A) (A) (A) (A) (A) (A) (A) (A) (A)
 Harris functional with IExCor= 4639 diagonalized for initial guess.
 ExpMin= 3.60D-02 ExpMax= 5.48D+03 ExpMxC= 8.25D+02 IAcc=3 IRadAn=         0 AccDes= 0.00D+00
 HarFok:  IExCor= 4639 AccDes= 0.00D+00 IRadAn=         0 IDoV= 1
 ScaDFX=  1.000000  1.000000  1.000000  1.000000
 FoFCou: FMM=F IPFlag=           0 FMFlag=      100000 FMFlg1=           0
         NFxFlg=           0 DoJE=T BraDBF=F KetDBF=T FulRan=T
         Omega=  0.000000  0.000000  1.000000  0.000000  0.000000 ICntrl=     500 IOpCl=  0
         NMat0=    1 NMatS0=    1 NMatT0=    0 NMatD0=    1 NMtDS0=    0 NMtDT0=    0
         I1Cent=           4 NGrid=           0.
 Petite list used in FoFCou.
 Requested convergence on RMS density matrix=1.00D-08 within 128 cycles.
 Requested convergence on MAX density matrix=1.00D-06.
 Requested convergence on             energy=1.00D-06.
 No special actions if energy rises.
 FoFJK:  IHMeth= 1 ICntrl=     0 DoSepK=T KAlg= 1 I1Cent= 0 FoldK=F
 FoFJK:  IHMeth= 1 ICntrl=     0 DoSepK=T KAlg= 1 I1Cent= 0 FoldK=F
 FoFJK:  IHMeth= 1 ICntrl=     0 DoSepK=T KAlg= 1 I1Cent= 0 FoldK=F
 FoFJK:  IHMeth= 1 ICntrl=     0 DoSepK=T KAlg= 1 I1Cent= 0 FoldK=F
 FoFJK:  IHMeth= 1 ICntrl=     0 DoSepK=T KAlg= 1 I1Cent= 0 FoldK=F
 FoFJK:  IHMeth= 1 ICntrl=     0 DoSepK=T KAlg= 1 I1Cent= 0 FoldK=F
 FoFJK:  IHMeth= 1 ICntrl=     0 DoSepK=T KAlg= 1 I1Cent= 0 FoldK=F
 FoFJK:  IHMeth= 1 ICntrl=     0 DoSepK=T KAlg= 1 I1Cent= 0 FoldK=F
 FoFJK:  IHMeth= 1 ICntrl=     0 DoSepK=T KAlg= 1 I1Cent= 0 FoldK=F
 SCF Done:  E(RwB97XD) =  -132.969417959     A.U. after    9 cycles
             Convg  =    0.6607D-08             -V/T =  2.0095
 Calling FoFJK, ICntrl=      2127 FMM=F ISym2X=0 I1Cent= 0 IOpClX= 0 NMat=1 NMatS=1 NMatT=0.
 FoFJK:  IHMeth= 1 ICntrl=  2127 DoSepK=T KAlg= 1 I1Cent= 0 FoldK=F
 ***** Axes restored to original set *****
 -------------------------------------------------------------------
 Center     Atomic                   Forces (Hartrees/Bohr)
 Number     Number              X              Y              Z
 -------------------------------------------------------------------
      1        8           0.000934072   -0.000340041   -0.000250034
      2        1           0.000293115   -0.000236194    0.001444016
      3        1          -0.001097756    0.000487123   -0.000677304
      4        7          -0.000301850    0.000191027    0.000182371
      5        1           0.000064082    0.000002761   -0.000204481
      6        1          -0.000019244   -0.000018419   -0.000357983
      7        1           0.000127581   -0.000086257   -0.000136585
 -------------------------------------------------------------------
 Cartesian Forces:  Max     0.001444016 RMS     0.000514395

 GradGradGradGradGradGradGradGradGradGradGradGradGradGradGradGradGradGrad
 Berny optimization.
 Using GEDIIS/GDIIS optimizer.
 Internal  Forces:  Max     0.002312148 RMS     0.000672125
 Search for a local minimum.
 Step number   4 out of a maximum of   28
 All quantities printed in internal units (Hartrees-Bohrs-Radians)
 Mixed Optimization -- En-DIIS/RFO-DIIS
 Update second derivatives using D2CorX and points    2    1    3    4
 DE= -8.49D-05 DEPred=-1.34D-04 R= 6.32D-01
 SS=  1.41D+00  RLast= 5.89D-02 DXNew= 2.5227D-01 1.7658D-01
 Trust test= 6.32D-01 RLast= 5.89D-02 DXMaxT set to 1.77D-01
 The second derivative matrix:
                          R1        R2        R3        R4        R5
           R1           0.54812
           R2           0.00405   0.52971
           R3          -0.00304   0.00219   0.04427
           R4          -0.00137   0.00046  -0.00096   0.45060
           R5          -0.00180   0.00018  -0.00120  -0.00047   0.44993
           R6          -0.00147   0.00055  -0.00103  -0.00042  -0.00052
           A1           0.02341   0.01285   0.01446   0.00476   0.00438
           A2          -0.00200   0.00090  -0.00129  -0.00057  -0.00075
           A3          -0.00578   0.00153  -0.00404  -0.00161  -0.00150
           A4          -0.00080   0.00012  -0.00056  -0.00020  -0.00044
           A5           0.00308  -0.00085   0.00205   0.00085   0.00095
           A6           0.00241  -0.00082   0.00192   0.00069   0.00082
           A7           0.00355  -0.00094   0.00218   0.00097   0.00106
           A8          -0.00174  -0.00215  -0.00058  -0.00029   0.00083
           A9           0.00001  -0.00002   0.00000   0.00000   0.00000
           D1          -0.00011   0.00042   0.00001  -0.00007   0.00000
           D2           0.00000   0.00020  -0.00001  -0.00002  -0.00002
           D3           0.00014  -0.00065   0.00002   0.00009   0.00004
                          R6        A1        A2        A3        A4
           R6           0.45048
           A1           0.00532   0.15334
           A2          -0.00063   0.00785   0.15906
           A3          -0.00176   0.01672  -0.00244   0.15541
           A4          -0.00022   0.00308  -0.00029  -0.00176   0.16029
           A5           0.00093  -0.00970   0.00136   0.00305   0.00066
           A6           0.00075  -0.00837   0.00087   0.00300   0.00033
           A7           0.00106  -0.01088   0.00165   0.00322   0.00085
           A8          -0.00034  -0.00799  -0.00087   0.00424  -0.00234
           A9           0.00000  -0.00009   0.00001   0.00001   0.00001
           D1          -0.00007   0.00133  -0.00022   0.00033  -0.00030
           D2          -0.00002   0.00067  -0.00003  -0.00004  -0.00003
           D3           0.00010  -0.00214   0.00025  -0.00024   0.00033
                          A5        A6        A7        A8        A9
           A5           0.15816
           A6          -0.00140   0.15849
           A7          -0.00212  -0.00144   0.15747
           A8          -0.00035   0.00017  -0.00070   0.01468
           A9          -0.00001   0.00000  -0.00002   0.00000   0.00230
           D1           0.00013  -0.00008   0.00021   0.00085   0.00000
           D2           0.00004   0.00003   0.00004   0.00003   0.00000
           D3          -0.00019   0.00004  -0.00028  -0.00083   0.00000
                          D1        D2        D3
           D1           0.00230
           D2           0.00002   0.00230
           D3          -0.00001  -0.00002   0.00233
 ITU=  1  0 -1  0
 Use linear search instead of GDIIS.
     Eigenvalues ---    0.00230   0.00230   0.01290   0.04151   0.09065
     Eigenvalues ---    0.10236   0.12703   0.16000   0.16129   0.17579
     Eigenvalues ---    0.44952   0.45075   0.45096   0.52910   0.55076
 RFO step:  Lambda=-1.61860995D-05 EMin= 2.29982824D-03
 Quartic linear search produced a step of -0.26679.
 Iteration  1 RMS(Cart)=  0.00578538 RMS(Int)=  0.00001467
 Iteration  2 RMS(Cart)=  0.00001684 RMS(Int)=  0.00000219
 Iteration  3 RMS(Cart)=  0.00000000 RMS(Int)=  0.00000219
 Variable       Old X    -DE/DX   Delta X   Delta X   Delta X     New X
                                 (Linear)    (Quad)   (Total)
    R1        1.81336  -0.00077   0.00066  -0.00153  -0.00087   1.81249
    R2        1.84595  -0.00120  -0.00069  -0.00117  -0.00185   1.84410
    R3        3.66640  -0.00053   0.00578  -0.01323  -0.00745   3.65895
    R4        1.91735  -0.00009   0.00027  -0.00036  -0.00008   1.91726
    R5        1.91780  -0.00006   0.00033  -0.00039  -0.00005   1.91775
    R6        1.91730  -0.00011   0.00030  -0.00040  -0.00010   1.91720
    A1        1.86983  -0.00231  -0.01274  -0.00074  -0.01349   1.85635
    A2        1.97298  -0.00011   0.00119  -0.00096   0.00023   1.97321
    A3        1.83839  -0.00050   0.00283  -0.00541  -0.00258   1.83581
    A4        2.00799   0.00004   0.00063   0.00013   0.00077   2.00876
    A5        1.87830   0.00021  -0.00167   0.00194   0.00028   1.87858
    A6        1.88085   0.00024  -0.00129   0.00290   0.00161   1.88246
    A7        1.87891   0.00012  -0.00196   0.00146  -0.00050   1.87842
    A8        3.24550   0.00016   0.00548   0.00174   0.00722   3.25272
    A9        3.14434   0.00000  -0.00026  -0.00119  -0.00145   3.14289
    D1       -1.28070  -0.00014  -0.00103  -0.00117  -0.00220  -1.28290
    D2        2.97232  -0.00002  -0.00052   0.00048  -0.00004   2.97229
    D3        0.91774   0.00017   0.00028   0.00268   0.00296   0.92070
         Item               Value     Threshold  Converged?
 Maximum Force            0.002312     0.000450     NO 
 RMS     Force            0.000672     0.000300     NO 
 Maximum Displacement     0.016582     0.001800     NO 
 RMS     Displacement     0.005798     0.001200     NO 
 Predicted change in Energy=-2.067945D-05
 GradGradGradGradGradGradGradGradGradGradGradGradGradGradGradGradGradGrad

                          Input orientation:                          
 ---------------------------------------------------------------------
 Center     Atomic      Atomic             Coordinates (Angstroms)
 Number     Number       Type             X           Y           Z
 ---------------------------------------------------------------------
      1          8           0       -1.208233   -1.730251   -2.148296
      2          1           0       -2.058412   -1.382175   -2.423919
      3          1           0       -1.242012   -1.799912   -1.175517
      4          7           0       -1.107625   -2.012815    0.744276
      5          1           0       -1.022935   -1.129977    1.237004
      6          1           0       -0.248966   -2.532410    0.894626
      7          1           0       -1.863022   -2.537124    1.172956
 ---------------------------------------------------------------------
                    Distance matrix (angstroms):
                    1          2          3          4          5
     1  O    0.000000
     2  H    0.959128   0.000000
     3  H    0.975854   1.549038   0.000000
     4  N    2.908082   3.367367   1.936232   0.000000
     5  H    3.443098   3.812896   2.513378   1.014572   0.000000
     6  H    3.289837   3.950933   2.410018   1.014829   1.638008
     7  H    3.480016   3.782802   2.538595   1.014540   1.640096
                    6          7
     6  H    0.000000
     7  H    1.637885   0.000000
 Stoichiometry    H5NO
 Framework group  C1[X(H5NO)]
 Deg. of freedom    15
 Full point group                 C1      NOp   1
 Largest Abelian subgroup         C1      NOp   1
 Largest concise Abelian subgroup C1      NOp   1
                         Standard orientation:                         
 ---------------------------------------------------------------------
 Center     Atomic      Atomic             Coordinates (Angstroms)
 Number     Number       Type             X           Y           Z
 ---------------------------------------------------------------------
      1          8           0       -1.537156    0.105501   -0.000114
      2          1           0       -1.912171   -0.777274    0.000559
      3          1           0       -0.567878   -0.007602   -0.000462
      4          7           0        1.368330   -0.017353   -0.000021
      5          1           0        1.764069   -0.297485    0.891199
      6          1           0        1.639027    0.946294   -0.167313
      7          1           0        1.795896   -0.586468   -0.722923
 ---------------------------------------------------------------------
 Rotational constants (GHZ):    146.7352419      6.4550795      6.3951714
 Standard basis: 6-31++G(d,p) (6D, 7F)
 There are    68 symmetry adapted basis functions of A   symmetry.
 Integral buffers will be    131072 words long.
 Raffenetti 2 integral format.
 Two-electron integral symmetry is turned on.
    68 basis functions,   104 primitive gaussians,    68 cartesian basis functions
    10 alpha electrons       10 beta electrons
       nuclear repulsion energy        39.0020825041 Hartrees.
 NAtoms=    7 NActive=    7 NUniq=    7 SFac= 1.00D+00 NAtFMM=   50 NAOKFM=F Big=F
 Nuclear repulsion after empirical dispersion term =       39.0009104621 Hartrees.
 One-electron integrals computed using PRISM.
 NBasis=    68 RedAO= T  NBF=    68
 NBsUse=    68 1.00D-06 NBFU=    68
 Initial guess read from the read-write file.
 B after Tr=     0.000000    0.000000    0.000000
         Rot=    1.000000    0.000000    0.000000    0.000000 Ang=   0.00 deg.
 Initial guess orbital symmetries:
       Occupied  (A) (A) (A) (A) (A) (A) (A) (A) (A) (A)
       Virtual   (A) (A) (A) (A) (A) (A) (A) (A) (A) (A) (A) (A)
                 (A) (A) (A) (A) (A) (A) (A) (A) (A) (A) (A) (A)
                 (A) (A) (A) (A) (A) (A) (A) (A) (A) (A) (A) (A)
                 (A) (A) (A) (A) (A) (A) (A) (A) (A) (A) (A) (A)
                 (A) (A) (A) (A) (A) (A) (A) (A) (A) (A)
 Requested convergence on RMS density matrix=1.00D-08 within 128 cycles.
 Requested convergence on MAX density matrix=1.00D-06.
 Requested convergence on             energy=1.00D-06.
 No special actions if energy rises.
 FoFJK:  IHMeth= 1 ICntrl=     0 DoSepK=T KAlg= 1 I1Cent= 0 FoldK=F
 FoFJK:  IHMeth= 1 ICntrl=     0 DoSepK=T KAlg= 1 I1Cent= 0 FoldK=F
 FoFJK:  IHMeth= 1 ICntrl=     0 DoSepK=T KAlg= 1 I1Cent= 0 FoldK=F
 FoFJK:  IHMeth= 1 ICntrl=     0 DoSepK=T KAlg= 1 I1Cent= 0 FoldK=F
 FoFJK:  IHMeth= 1 ICntrl=     0 DoSepK=T KAlg= 1 I1Cent= 0 FoldK=F
 FoFJK:  IHMeth= 1 ICntrl=     0 DoSepK=T KAlg= 1 I1Cent= 0 FoldK=F
 FoFJK:  IHMeth= 1 ICntrl=     0 DoSepK=T KAlg= 1 I1Cent= 0 FoldK=F
 FoFJK:  IHMeth= 1 ICntrl=     0 DoSepK=T KAlg= 1 I1Cent= 0 FoldK=F
 SCF Done:  E(RwB97XD) =  -132.969443260     A.U. after    8 cycles
             Convg  =    0.9529D-08             -V/T =  2.0094
 Calling FoFJK, ICntrl=      2127 FMM=F ISym2X=0 I1Cent= 0 IOpClX= 0 NMat=1 NMatS=1 NMatT=0.
 FoFJK:  IHMeth= 1 ICntrl=  2127 DoSepK=T KAlg= 1 I1Cent= 0 FoldK=F
 ***** Axes restored to original set *****
 -------------------------------------------------------------------
 Center     Atomic                   Forces (Hartrees/Bohr)
 Number     Number              X              Y              Z
 -------------------------------------------------------------------
      1        8           0.000315487   -0.000091128   -0.000327169
      2        1          -0.000142756    0.000041702    0.000147303
      3        1           0.000008819   -0.000048089    0.000494070
      4        7          -0.000281780    0.000106039    0.000217417
      5        1          -0.000007221   -0.000041215   -0.000108398
      6        1           0.000033259    0.000011680   -0.000384811
      7        1           0.000074192    0.000021011   -0.000038412
 -------------------------------------------------------------------
 Cartesian Forces:  Max     0.000494070 RMS     0.000196801

 GradGradGradGradGradGradGradGradGradGradGradGradGradGradGradGradGradGrad
 Berny optimization.
 Using GEDIIS/GDIIS optimizer.
 Internal  Forces:  Max     0.000541651 RMS     0.000194150
 Search for a local minimum.
 Step number   5 out of a maximum of   28
 All quantities printed in internal units (Hartrees-Bohrs-Radians)
 Mixed Optimization -- En-DIIS/RFO-DIIS
 Swaping is turned off.
 Update second derivatives using D2CorX and points    2    1    3    4    5
 DE= -2.53D-05 DEPred=-2.07D-05 R= 1.22D+00
 SS=  1.41D+00  RLast= 1.79D-02 DXNew= 2.9697D-01 5.3638D-02
 Trust test= 1.22D+00 RLast= 1.79D-02 DXMaxT set to 1.77D-01
 The second derivative matrix:
                          R1        R2        R3        R4        R5
           R1           0.56139
           R2           0.02320   0.55688
           R3          -0.00751  -0.00262   0.03675
           R4          -0.00306  -0.00155  -0.00277   0.45019
           R5          -0.00188   0.00028  -0.00229  -0.00076   0.44979
           R6          -0.00269  -0.00080  -0.00287  -0.00085  -0.00079
           A1           0.03184   0.02661  -0.00053   0.00052   0.00283
           A2           0.00011   0.00390  -0.00157  -0.00073  -0.00071
           A3          -0.01890  -0.01462  -0.01551  -0.00413  -0.00341
           A4           0.00392   0.00634   0.00155   0.00017   0.00000
           A5           0.00499   0.00126   0.00488   0.00152   0.00138
           A6           0.00417   0.00075   0.00681   0.00190   0.00149
           A7           0.00565   0.00162   0.00388   0.00134   0.00135
           A8          -0.00217  -0.00315   0.00117   0.00016   0.00103
           A9           0.00005   0.00004  -0.00001   0.00000   0.00000
           D1           0.00068   0.00147   0.00015  -0.00006   0.00004
           D2           0.00078   0.00124   0.00019   0.00000   0.00003
           D3          -0.00135  -0.00264  -0.00024   0.00008  -0.00005
                          R6        A1        A2        A3        A4
           R6           0.45003
           A1           0.00156   0.14037
           A2          -0.00071   0.00990   0.15937
           A3          -0.00451  -0.01338  -0.00375   0.14026
           A4           0.00027   0.01136   0.00027   0.00017   0.16040
           A5           0.00162  -0.00388   0.00150   0.00727  -0.00009
           A6           0.00194   0.00015   0.00089   0.01089  -0.00130
           A7           0.00148  -0.00639   0.00188   0.00542   0.00060
           A8           0.00007  -0.00681  -0.00100   0.00723  -0.00306
           A9           0.00000  -0.00006   0.00002  -0.00003   0.00002
           D1          -0.00004   0.00230  -0.00011   0.00023  -0.00017
           D2           0.00003   0.00178   0.00007   0.00001   0.00005
           D3           0.00004  -0.00405   0.00005  -0.00010   0.00010
                          A5        A6        A7        A8        A9
           A5           0.15710
           A6          -0.00324   0.15541
           A7          -0.00276  -0.00262   0.15714
           A8          -0.00098  -0.00079  -0.00117   0.01445
           A9           0.00000   0.00001  -0.00001   0.00000   0.00230
           D1           0.00009  -0.00022   0.00023   0.00072   0.00001
           D2          -0.00003  -0.00015   0.00004  -0.00007   0.00000
           D3          -0.00011   0.00031  -0.00031  -0.00063  -0.00001
                          D1        D2        D3
           D1           0.00233
           D2           0.00004   0.00233
           D3          -0.00006  -0.00007   0.00243
 ITU=  1  1  0 -1  0
     Eigenvalues ---    0.00230   0.00230   0.01237   0.03322   0.08658
     Eigenvalues ---    0.10262   0.13149   0.13598   0.16001   0.16859
     Eigenvalues ---    0.44857   0.45064   0.45096   0.53596   0.58791
 En-DIIS/RFO-DIIS IScMMF=        0 using points:     5    4
 RFO step:  Lambda=-2.42371393D-06.
 DidBck=F Rises=F RFO-DIIS coefs:    1.25780   -0.25780
 Iteration  1 RMS(Cart)=  0.00579318 RMS(Int)=  0.00001313
 Iteration  2 RMS(Cart)=  0.00001270 RMS(Int)=  0.00000295
 Iteration  3 RMS(Cart)=  0.00000000 RMS(Int)=  0.00000295
 Variable       Old X    -DE/DX   Delta X   Delta X   Delta X     New X
                                  (DIIS)     (GDIIS)  (Total)
    R1        1.81249   0.00009  -0.00022   0.00011  -0.00011   1.81238
    R2        1.84410   0.00018  -0.00048   0.00073   0.00025   1.84435
    R3        3.65895  -0.00033  -0.00192  -0.01094  -0.01286   3.64609
    R4        1.91726  -0.00009  -0.00002  -0.00033  -0.00035   1.91691
    R5        1.91775  -0.00004  -0.00001  -0.00020  -0.00021   1.91754
    R6        1.91720  -0.00008  -0.00003  -0.00031  -0.00034   1.91686
    A1        1.85635  -0.00033  -0.00348   0.00084  -0.00264   1.85371
    A2        1.97321  -0.00002   0.00006  -0.00014  -0.00009   1.97312
    A3        1.83581  -0.00054  -0.00066  -0.00580  -0.00646   1.82934
    A4        2.00876   0.00012   0.00020   0.00116   0.00135   2.01011
    A5        1.87858   0.00019   0.00007   0.00152   0.00159   1.88016
    A6        1.88246   0.00008   0.00042   0.00171   0.00212   1.88458
    A7        1.87842   0.00017  -0.00013   0.00152   0.00139   1.87981
    A8        3.25272  -0.00001   0.00186   0.00317   0.00503   3.25775
    A9        3.14289   0.00001  -0.00037   0.00194   0.00157   3.14446
    D1       -1.28290  -0.00011  -0.00057  -0.00107  -0.00164  -1.28454
    D2        2.97229   0.00001  -0.00001   0.00134   0.00133   2.97361
    D3        0.92070   0.00010   0.00076   0.00309   0.00386   0.92456
         Item               Value     Threshold  Converged?
 Maximum Force            0.000542     0.000450     NO 
 RMS     Force            0.000194     0.000300     YES
 Maximum Displacement     0.016154     0.001800     NO 
 RMS     Displacement     0.005800     0.001200     NO 
 Predicted change in Energy=-5.090843D-06
 GradGradGradGradGradGradGradGradGradGradGradGradGradGradGradGradGradGrad

                          Input orientation:                          
 ---------------------------------------------------------------------
 Center     Atomic      Atomic             Coordinates (Angstroms)
 Number     Number       Type             X           Y           Z
 ---------------------------------------------------------------------
      1          8           0       -1.206142   -1.731681   -2.143366
      2          1           0       -2.055392   -1.382921   -2.420775
      3          1           0       -1.244327   -1.800065   -1.170525
      4          7           0       -1.109565   -2.011904    0.742495
      5          1           0       -1.023042   -1.129191    1.234744
      6          1           0       -0.249744   -2.531274    0.886077
      7          1           0       -1.862992   -2.537629    1.172480
 ---------------------------------------------------------------------
                    Distance matrix (angstroms):
                    1          2          3          4          5
     1  O    0.000000
     2  H    0.959070   0.000000
     3  H    0.975988   1.547566   0.000000
     4  N    2.901042   3.361025   1.929426   0.000000
     5  H    3.436298   3.806961   2.506863   1.014385   0.000000
     6  H    3.275908   3.938827   2.398641   1.014718   1.638718
     7  H    3.475031   3.779134   2.533066   1.014360   1.641064
                    6          7
     6  H    0.000000
     7  H    1.638485   0.000000
 Stoichiometry    H5NO
 Framework group  C1[X(H5NO)]
 Deg. of freedom    15
 Full point group                 C1      NOp   1
 Largest Abelian subgroup         C1      NOp   1
 Largest concise Abelian subgroup C1      NOp   1
                         Standard orientation:                         
 ---------------------------------------------------------------------
 Center     Atomic      Atomic             Coordinates (Angstroms)
 Number     Number       Type             X           Y           Z
 ---------------------------------------------------------------------
      1          8           0       -1.533299    0.105493   -0.000087
      2          1           0       -1.909042   -0.776909    0.000546
      3          1           0       -0.564290   -0.011009   -0.000958
      4          7           0        1.365124   -0.017745   -0.000006
      5          1           0        1.760903   -0.296493    0.891417
      6          1           0        1.628019    0.948123   -0.166254
      7          1           0        1.794936   -0.583440   -0.724007
 ---------------------------------------------------------------------
 Rotational constants (GHZ):    146.7109244      6.4862456      6.4259779
 Standard basis: 6-31++G(d,p) (6D, 7F)
 There are    68 symmetry adapted basis functions of A   symmetry.
 Integral buffers will be    131072 words long.
 Raffenetti 2 integral format.
 Two-electron integral symmetry is turned on.
    68 basis functions,   104 primitive gaussians,    68 cartesian basis functions
    10 alpha electrons       10 beta electrons
       nuclear repulsion energy        39.0493666005 Hartrees.
 NAtoms=    7 NActive=    7 NUniq=    7 SFac= 1.00D+00 NAtFMM=   50 NAOKFM=F Big=F
 Nuclear repulsion after empirical dispersion term =       39.0481889170 Hartrees.
 One-electron integrals computed using PRISM.
 NBasis=    68 RedAO= T  NBF=    68
 NBsUse=    68 1.00D-06 NBFU=    68
 Initial guess read from the read-write file.
 B after Tr=     0.000000    0.000000    0.000000
         Rot=    1.000000    0.000000    0.000000    0.000000 Ang=   0.00 deg.
 Initial guess orbital symmetries:
       Occupied  (A) (A) (A) (A) (A) (A) (A) (A) (A) (A)
       Virtual   (A) (A) (A) (A) (A) (A) (A) (A) (A) (A) (A) (A)
                 (A) (A) (A) (A) (A) (A) (A) (A) (A) (A) (A) (A)
                 (A) (A) (A) (A) (A) (A) (A) (A) (A) (A) (A) (A)
                 (A) (A) (A) (A) (A) (A) (A) (A) (A) (A) (A) (A)
                 (A) (A) (A) (A) (A) (A) (A) (A) (A) (A)
 Requested convergence on RMS density matrix=1.00D-08 within 128 cycles.
 Requested convergence on MAX density matrix=1.00D-06.
 Requested convergence on             energy=1.00D-06.
 No special actions if energy rises.
 FoFJK:  IHMeth= 1 ICntrl=     0 DoSepK=T KAlg= 1 I1Cent= 0 FoldK=F
 FoFJK:  IHMeth= 1 ICntrl=     0 DoSepK=T KAlg= 1 I1Cent= 0 FoldK=F
 FoFJK:  IHMeth= 1 ICntrl=     0 DoSepK=T KAlg= 1 I1Cent= 0 FoldK=F
 FoFJK:  IHMeth= 1 ICntrl=     0 DoSepK=T KAlg= 1 I1Cent= 0 FoldK=F
 FoFJK:  IHMeth= 1 ICntrl=     0 DoSepK=T KAlg= 1 I1Cent= 0 FoldK=F
 FoFJK:  IHMeth= 1 ICntrl=     0 DoSepK=T KAlg= 1 I1Cent= 0 FoldK=F
 FoFJK:  IHMeth= 1 ICntrl=     0 DoSepK=T KAlg= 1 I1Cent= 0 FoldK=F
 FoFJK:  IHMeth= 1 ICntrl=     0 DoSepK=T KAlg= 1 I1Cent= 0 FoldK=F
 SCF Done:  E(RwB97XD) =  -132.969450855     A.U. after    8 cycles
             Convg  =    0.8806D-08             -V/T =  2.0094
 Calling FoFJK, ICntrl=      2127 FMM=F ISym2X=0 I1Cent= 0 IOpClX= 0 NMat=1 NMatS=1 NMatT=0.
 FoFJK:  IHMeth= 1 ICntrl=  2127 DoSepK=T KAlg= 1 I1Cent= 0 FoldK=F
 ***** Axes restored to original set *****
 -------------------------------------------------------------------
 Center     Atomic                   Forces (Hartrees/Bohr)
 Number     Number              X              Y              Z
 -------------------------------------------------------------------
      1        8           0.000141107   -0.000036920   -0.000276144
      2        1          -0.000197178    0.000084777   -0.000118685
      3        1           0.000218077   -0.000113815    0.000504773
      4        7          -0.000260219    0.000068669   -0.000001891
      5        1          -0.000013412   -0.000038486    0.000040792
      6        1           0.000053262    0.000007991   -0.000250632
      7        1           0.000058363    0.000027783    0.000101786
 -------------------------------------------------------------------
 Cartesian Forces:  Max     0.000504773 RMS     0.000173068

 GradGradGradGradGradGradGradGradGradGradGradGradGradGradGradGradGradGrad
 Berny optimization.
 Using GEDIIS/GDIIS optimizer.
 Internal  Forces:  Max     0.000401818 RMS     0.000164680
 Search for a local minimum.
 Step number   6 out of a maximum of   28
 All quantities printed in internal units (Hartrees-Bohrs-Radians)
 Mixed Optimization -- En-DIIS/RFO-DIIS
 Swaping is turned off.
 Update second derivatives using D2CorX and points    2    1    3    4    5
                                                      6
[...]
     6   1     0.03  -0.04  -0.25    -0.72   0.10  -0.01     0.09   0.02   0.20
     7   1     0.14  -0.20   0.21     0.20   0.24  -0.01     0.52   0.07   0.21
                     4                      5                      6
                     A                      A                      A
 Frequencies --   226.5163               498.9645               771.8947
 Red. masses --     2.1162                 1.0883                 1.0497
 Frc consts  --     0.0640                 0.1596                 0.3685
 IR Inten    --    33.4292               115.2037               166.9959
  Atom  AN      X      Y      Z        X      Y      Z        X      Y      Z
     1   8     0.18  -0.02   0.00    -0.03   0.02   0.00     0.00   0.00  -0.03
     2   1     0.45  -0.14  -0.01     0.61  -0.26   0.00     0.00   0.00   0.00
     3   1     0.23   0.27   0.00     0.04   0.51   0.01     0.00   0.00   0.94
     4   7    -0.21   0.05   0.00    -0.01  -0.07   0.00     0.00   0.00  -0.05
     5   1    -0.36  -0.17   0.00     0.12   0.13   0.00    -0.25  -0.04   0.06
     6   1     0.31  -0.08  -0.01    -0.43   0.03   0.00     0.04   0.01   0.06
     7   1    -0.52  -0.20   0.00     0.24   0.14   0.00     0.20   0.02   0.06
                     7                      8                      9
                     A                      A                      A
 Frequencies --  1096.7993              1654.8995              1678.4994
 Red. masses --     1.1836                 1.0786                 1.0656
 Frc consts  --     0.8389                 1.7404                 1.7688
 IR Inten    --   206.1538                94.7302                30.0873
  Atom  AN      X      Y      Z        X      Y      Z        X      Y      Z
     1   8     0.00   0.00   0.00    -0.02   0.05   0.00     0.00   0.00   0.00
     2   1     0.01  -0.01   0.00     0.48  -0.22   0.00     0.01  -0.01   0.00
     3   1     0.00   0.00   0.00    -0.09  -0.66   0.00     0.00  -0.02   0.01
     4   7     0.12   0.02   0.00    -0.01   0.04  -0.01     0.00   0.01   0.07
     5   1    -0.52  -0.15   0.19     0.10  -0.31  -0.16    -0.16  -0.41  -0.01
     6   1    -0.57   0.12  -0.04    -0.10   0.05  -0.01     0.03  -0.12  -0.75
     7   1    -0.51  -0.20  -0.16     0.08  -0.24   0.25     0.15   0.42  -0.16
                    10                     11                     12
                     A                      A                      A
 Frequencies --  1680.2764              3531.6054              3623.3000
 Red. masses --     1.0602                 1.0262                 1.0596
 Frc consts  --     1.7636                 7.5408                 8.1962
 IR Inten    --     1.5232                 3.1501               657.7006
  Atom  AN      X      Y      Z        X      Y      Z        X      Y      Z
     1   8     0.01  -0.03   0.00     0.00   0.00   0.00    -0.06   0.02   0.00
     2   1    -0.28   0.13   0.00     0.00   0.01   0.00    -0.09  -0.15   0.00
     3   1     0.05   0.41   0.00    -0.06   0.01   0.00     0.98  -0.10   0.00
     4   7    -0.01   0.05  -0.01     0.04   0.01   0.00     0.00   0.00   0.00
     5   1     0.18  -0.50  -0.26    -0.19   0.16  -0.50    -0.01   0.01  -0.04
     6   1    -0.25   0.08  -0.05    -0.10  -0.58   0.09     0.00  -0.03   0.00
     7   1     0.18  -0.35   0.39    -0.22   0.32   0.42    -0.01   0.03   0.03
                    13                     14                     15
                     A                      A                      A
 Frequencies --  3673.7911              3679.1324              3977.4677
 Red. masses --     1.0909                 1.0913                 1.0700
 Frc consts  --     8.6752                 8.7036                 9.9732
 IR Inten    --    13.1960                11.9872                66.3180
  Atom  AN      X      Y      Z        X      Y      Z        X      Y      Z
     1   8     0.00   0.00   0.00     0.00   0.00   0.00     0.04   0.05   0.00
     2   1     0.00   0.00   0.00     0.00   0.00   0.00    -0.42  -0.89   0.00
     3   1     0.01   0.00   0.00     0.00   0.00   0.00    -0.15   0.05   0.00
     4   7    -0.01   0.08   0.00     0.00   0.00   0.08     0.00   0.00   0.00
     5   1     0.11  -0.06   0.26    -0.31   0.22  -0.67     0.00   0.00   0.00
     6   1    -0.17  -0.76   0.12     0.03   0.14   0.00     0.00   0.00   0.00
     7   1     0.23  -0.27  -0.40     0.27  -0.34  -0.44     0.00   0.00   0.00

 -------------------
 - Thermochemistry -
 -------------------
 Temperature   298.150 Kelvin.  Pressure   1.00000 Atm.
 Atom     1 has atomic number  8 and mass  15.99491
 Atom     2 has atomic number  1 and mass   1.00783
 Atom     3 has atomic number  1 and mass   1.00783
 Atom     4 has atomic number  7 and mass  14.00307
 Atom     5 has atomic number  1 and mass   1.00783
 Atom     6 has atomic number  1 and mass   1.00783
 Atom     7 has atomic number  1 and mass   1.00783
 Molecular mass:    35.03711 amu.
 Principal axes and moments of inertia in atomic units:
                           1         2         3
     Eigenvalues --    12.23567 277.15692 279.70245
           X            0.99982   0.01904   0.00002
           Y           -0.01904   0.99982   0.00001
           Z           -0.00002  -0.00001   1.00000
 This molecule is an asymmetric top.
 Rotational symmetry number  1.
 Rotational temperatures (Kelvin)      7.07880     0.31251     0.30966
 Rotational constants (GHZ):         147.49834     6.51162     6.45236
    1 imaginary frequencies ignored.
 Zero-point vibrational energy     158491.5 (Joules/Mol)
                                   37.88037 (Kcal/Mol)
 Warning -- explicit consideration of   4 degrees of freedom as
           vibrations may cause significant error
 Vibrational temperatures:    277.02   305.05   325.91   717.90  1110.58
          (Kelvin)           1578.05  2381.03  2414.98  2417.54  5081.19
                             5213.11  5285.76  5293.44  5722.68
 
 Zero-point correction=                           0.060366 (Hartree/Particle)
 Thermal correction to Energy=                    0.065178
 Thermal correction to Enthalpy=                  0.066122
 Thermal correction to Gibbs Free Energy=         0.035154
 Sum of electronic and zero-point Energies=           -132.909098
 Sum of electronic and thermal Energies=              -132.904286
 Sum of electronic and thermal Enthalpies=            -132.903342
 Sum of electronic and thermal Free Energies=         -132.934310
 
                     E (Thermal)             CV                S
                      KCal/Mol        Cal/Mol-Kelvin    Cal/Mol-Kelvin
 Total                   40.900             13.790             65.178
 Electronic               0.000              0.000              0.000
 Translational            0.889              2.981             36.592
 Rotational               0.889              2.981             21.478
 Vibrational             39.122              7.829              7.108
 Vibration     1          0.635              1.850              2.203
 Vibration     2          0.643              1.823              2.026
 Vibration     3          0.650              1.801              1.906
 Vibration     4          0.854              1.252              0.661
                       Q            Log10(Q)             Ln(Q)
 Total Bot       0.676451D-16        -16.169764        -37.232257
 Total V=0       0.395100D+12         11.596707         26.702404
 Vib (Bot)       0.752692D-27        -27.123383        -62.453897
 Vib (Bot)    1  0.103852D+01          0.016416          0.037799
 Vib (Bot)    2  0.936020D+00         -0.028715         -0.066119
 Vib (Bot)    3  0.870827D+00         -0.060068         -0.138312
 Vib (Bot)    4  0.329691D+00         -0.481893         -1.109599
 Vib (V=0)       0.439630D+01          0.643088          1.480764
 Vib (V=0)    1  0.165262D+01          0.218172          0.502361
 Vib (V=0)    2  0.156119D+01          0.193457          0.445451
 Vib (V=0)    3  0.150416D+01          0.177294          0.408236
 Vib (V=0)    4  0.109891D+01          0.040963          0.094321
 Electronic      0.100000D+01          0.000000          0.000000
 Translational   0.815169D+07          6.911248         15.913736
 Rotational      0.110248D+05          4.042371          9.307904
 ***** Axes restored to original set *****
 -------------------------------------------------------------------
 Center     Atomic                   Forces (Hartrees/Bohr)
 Number     Number              X              Y              Z
 -------------------------------------------------------------------
      1        8           0.000007412   -0.000001147   -0.000008325
      2        1          -0.000018629    0.000003028    0.000002559
      3        1          -0.000007017    0.000002323   -0.000003443
      4        7           0.000016652   -0.000008189    0.000064358
      5        1          -0.000012913   -0.000002723   -0.000013914
      6        1           0.000005401    0.000015493   -0.000020730
      7        1           0.000009094   -0.000008786   -0.000020505
 -------------------------------------------------------------------
 Cartesian Forces:  Max     0.000064358 RMS     0.000017846

 GradGradGradGradGradGradGradGradGradGradGradGradGradGradGradGradGradGrad
 Berny optimization.
 Internal  Forces:  Max     0.000017257 RMS     0.000010462
 Search for a local minimum.
 Step number   1 out of a maximum of    2
 All quantities printed in internal units (Hartrees-Bohrs-Radians)
 Second derivative matrix not updated -- analytic derivatives used.
 The second derivative matrix:
                          R1        R2        R3        R4        R5
           R1           0.56575
           R2          -0.00633   0.50102
           R3          -0.00024   0.02167   0.01585
           R4           0.00007  -0.00010   0.00059   0.47126
           R5          -0.00002  -0.00029   0.00088  -0.00272   0.46936
           R6           0.00005  -0.00002   0.00055  -0.00277  -0.00273
           A1           0.02856   0.02167   0.00382   0.00023  -0.00034
           A2           0.00034   0.00167   0.00034  -0.00946  -0.00718
           A3          -0.00064   0.00037   0.00104  -0.00825  -0.00883
           A4           0.00044   0.00241   0.00021  -0.00906  -0.00750
           A5          -0.00006  -0.00016  -0.00070   0.01403   0.01320
           A6          -0.00009  -0.00382  -0.00029   0.01386   0.00035
           A7          -0.00007  -0.00045  -0.00071   0.00011   0.01290
           A8          -0.00156  -0.00297   0.00076  -0.00042   0.00258
           A9           0.00000   0.00004   0.00000   0.00093  -0.00025
           D1          -0.00005  -0.00235  -0.00027   0.00192   0.00674
           D2           0.00002   0.00016   0.00002  -0.00588  -0.00036
           D3           0.00002   0.00218   0.00027   0.00377  -0.00636
                          R6        A1        A2        A3        A4
           R6           0.47061
           A1           0.00040   0.13804
           A2          -0.00917   0.00130   0.02221
           A3          -0.00882  -0.00274   0.00418   0.02441
           A4          -0.00918   0.00227   0.00653   0.00460   0.02181
           A5          -0.00003  -0.00033  -0.01228  -0.01762   0.00107
           A6           0.01414  -0.00047  -0.02285   0.00107  -0.02169
           A7           0.01377  -0.00040   0.00128  -0.01969  -0.01317
           A8          -0.00058  -0.00754  -0.00096   0.00467  -0.00232
           A9          -0.00067   0.00000   0.00302  -0.00039  -0.00261
           D1          -0.00367  -0.00045   0.00014  -0.00558   0.00447
           D2           0.00527  -0.00002   0.00295  -0.00011  -0.00274
           D3          -0.00128   0.00044  -0.00496   0.00593  -0.00008
                          A5        A6        A7        A8        A9
           A5           0.05951
           A6          -0.01161   0.06163
           A7          -0.01286  -0.01070   0.05918
           A8           0.00382  -0.00660   0.00295   0.01645
           A9           0.00142   0.00052  -0.00200  -0.00013   0.00480
           D1           0.02701  -0.02193  -0.00002   0.00418   0.00016
           D2          -0.02735  -0.00012   0.02650  -0.00023  -0.00231
           D3           0.00018   0.02184  -0.02610  -0.00382   0.00124
                          D1        D2        D3
           D1           0.01810
           D2          -0.01012   0.02092
           D3          -0.00804  -0.01007   0.01753
 ITU=  0
     Eigenvalues ---   -0.00014   0.00275   0.00687   0.01458   0.01562
     Eigenvalues ---    0.02204   0.06619   0.10333   0.10439   0.13544
     Eigenvalues ---    0.46838   0.47339   0.47451   0.50308   0.56802
 Eigenvalue     1 is  -1.37D-04 should be greater than     0.000000 Eigenvector:
                          D3        D1        D2        A2        A4
   1                    0.59741   0.57938   0.54408   0.08009  -0.06974
                          A3        A8        R3        A6        A7
   1                   -0.01070  -0.00249  -0.00072   0.00060  -0.00051
 Angle between quadratic step and forces=  83.57 degrees.
 Linear search not attempted -- first point.
 Iteration  1 RMS(Cart)=  0.00390301 RMS(Int)=  0.00003220
 Iteration  2 RMS(Cart)=  0.00002559 RMS(Int)=  0.00000150
 Iteration  3 RMS(Cart)=  0.00000000 RMS(Int)=  0.00000150
 Variable       Old X    -DE/DX   Delta X   Delta X   Delta X     New X
                                 (Linear)    (Quad)   (Total)
    R1        1.81274   0.00001   0.00000   0.00002   0.00002   1.81276
    R2        1.84542   0.00001   0.00000  -0.00001  -0.00001   1.84540
    R3        3.63542   0.00001   0.00000   0.00085   0.00085   3.63627
    R4        1.91687  -0.00001   0.00000  -0.00006  -0.00006   1.91682
    R5        1.91782  -0.00001   0.00000  -0.00004  -0.00004   1.91777
    R6        1.91674  -0.00001   0.00000  -0.00005  -0.00005   1.91669
    A1        1.85443  -0.00001   0.00000  -0.00006  -0.00006   1.85436
    A2        1.98311  -0.00001   0.00000   0.00223   0.00223   1.98534
    A3        1.79664  -0.00002   0.00000  -0.00055  -0.00055   1.79609
    A4        2.03004  -0.00002   0.00000  -0.00237  -0.00237   2.02768
    A5        1.88014   0.00001   0.00000   0.00024   0.00024   1.88038
    A6        1.88445   0.00001   0.00000   0.00025   0.00025   1.88470
    A7        1.87992   0.00002   0.00000   0.00023   0.00023   1.88015
    A8        3.27695   0.00000   0.00000  -0.00013  -0.00013   3.27682
    A9        3.14608   0.00000   0.00000  -0.00039  -0.00039   3.14569
    D1       -1.28533   0.00000   0.00000   0.01537   0.01538  -1.26996
    D2        2.99091   0.00000   0.00000   0.01423   0.01423   3.00515
    D3        0.95716   0.00000   0.00000   0.01578   0.01578   0.97294
         Item               Value     Threshold  Converged?
 Maximum Force            0.000017     0.000450     YES
 RMS     Force            0.000010     0.000300     YES
 Maximum Displacement     0.009810     0.001800     NO 
 RMS     Displacement     0.003903     0.001200     NO 
 Predicted change in Energy=-1.617428D-07
 GradGradGradGradGradGradGradGradGradGradGradGradGradGradGradGradGradGrad

 1\1\GINC-NODE142\Freq\RwB97XD\6-31++G(d,p)\H5N1O1\ROOT\18-Jan-2017\0\\
 #N Geom=AllCheck Guess=TCheck SCRF=Check GenChk RwB97XD/6-31++G(d,p) F
 req\\Title Card Required\\0,1\O,-1.2017482585,-1.739433996,-2.13687758
 25\H,-2.0411928726,-1.3803725748,-2.4311404493\H,-1.2561137937,-1.7990
 472721,-1.1636640971\N,-1.1198555055,-2.0081666122,0.7438586962\H,-1.0
 220503799,-1.1305608422,1.2430387948\H,-0.2533624091,-2.5247857963,0.8
 545243932\H,-1.8568817807,-2.5422979063,1.1913912446\\Version=EM64L-G0
 9RevB.01\State=1-A\HF=-132.9694638\RMSD=4.214e-10\RMSF=1.785e-05\ZeroP
 oint=0.0603662\Thermal=0.065178\Dipole=-0.4888811,0.0759615,1.4688324\
 DipoleDeriv=-0.4694088,-0.1249664,-0.0366244,-0.1200747,-0.7448306,0.0
 302852,-0.0840611,0.0474288,-0.9713507,0.1395867,0.0978264,-0.0238282,
 0.09329,0.3408209,0.0143959,0.0230256,-0.0034328,0.314939,0.2551178,0.
 019743,0.0864997,0.0205203,0.3239547,-0.0742331,0.0747763,-0.0698786,0
 .8178832,-0.4208082,0.020829,-0.0710142,0.0184395,-0.4073006,0.0583604
 ,-0.0598934,0.0568958,-0.8139325,0.1990837,-0.02764,0.0015322,-0.01956
 24,0.156312,-0.0963966,0.00422,-0.1237926,0.1836337,0.1181344,0.048494
 6,-0.0404711,0.0495286,0.1672875,0.0222038,-0.0671217,0.0372599,0.2750
 201,0.1782944,-0.0342867,0.0839061,-0.0421414,0.163756,0.0453844,0.109
 0543,0.0555194,0.1938074\Polar=17.3295226,-0.1729566,17.2611636,1.1690
 858,-0.9931782,23.5223159\PG=C01 [X(H5N1O1)]\NImag=1\\0.46978832,-0.19
 389857,0.08960485,0.10350249,-0.08902829,0.57727868,-0.42755689,0.1838
 8163,-0.16014398,0.42874051,0.17957242,-0.07717854,0.07130397,-0.18347
 217,0.07875269,-0.10857715,0.05075901,-0.08951138,0.15094016,-0.068514
 61,0.10022293,-0.04734147,0.01006063,0.05818049,-0.00123264,0.00412433
 ,-0.04410076,0.05819771,0.01435285,-0.01692598,0.01512466,-0.00024944,
 -0.00152742,0.01828520,-0.01437168,0.02785383,0.00661901,0.03566523,-0
 .46829475,0.00834058,-0.00261672,-0.00858770,-0.01358239,-0.03231336,0
 .47086565,0.00567383,0.00017476,-0.00060053,0.00007868,-0.00020140,0.0
 0208311,-0.01037209,-0.00040909,-0.00182198,0.66466877,0.00040736,0.00
 558156,0.00199845,-0.00018966,-0.00016256,-0.00072120,-0.00066984,-0.0
 1083799,-0.00057402,0.01642346,0.67708025,-0.00201346,0.00252672,-0.01
 555417,0.00084201,-0.00023966,-0.00150891,0.00103742,-0.00156325,0.003
 55430,-0.08953548,0.06793854,0.26943724,-0.00007205,0.00035604,-0.0001
 5187,-0.00003010,-0.00014504,-0.00016534,0.00008777,-0.00070604,-0.000
 02159,-0.06491992,-0.04165835,-0.01156298,0.06116155,-0.00009632,-0.00
 083970,0.00097883,0.00007679,0.00012421,0.00015760,0.00006744,0.001489
 94,-0.00132535,-0.03107180,-0.33902933,-0.15954876,0.03580742,0.369916
 10,0.00019277,0.00251191,-0.00114428,-0.00014375,-0.00023454,-0.000567
 03,-0.00036513,-0.00530531,0.00072079,-0.01103403,-0.20911905,-0.12617
 901,0.01160599,0.18426071,0.12321889,0.00006246,-0.00031178,0.00028965
 ,-0.00006470,-0.00000794,0.00007943,-0.00049477,0.00081553,-0.00096855
 ,-0.34182894,0.16582210,-0.02100229,0.00512175,-0.00593880,-0.00282076
 ,0.35985007,-0.00040821,-0.00020211,-0.00013641,-0.00001090,-0.0000386
 6,-0.00008043,0.00101715,0.00011999,0.00062666,0.16742300,-0.16282466,
 0.01097535,0.03304550,-0.01569585,0.00761034,-0.17907353,0.16630927,0.
 00225216,-0.00128430,-0.00114423,0.00005486,-0.00005066,0.00074213,-0.
 00541597,0.00328141,-0.00012156,-0.06458880,0.03670536,-0.02350667,0.0
 1850198,-0.01143650,-0.00143607,0.03208951,-0.01785141,0.02717385,-0.0
 0055420,-0.00026272,-0.00107626,0.00006514,0.00012981,-0.00025944,0.00
 115549,0.00056787,0.00143493,-0.25330032,-0.14013507,0.12223480,-0.001
 34900,0.00115527,0.00256492,-0.02264588,-0.02199301,0.01710626,0.27662
 877,0.00007046,-0.00004008,-0.00024120,-0.00003626,0.00003029,0.000114
 43,-0.00022802,-0.00017238,0.00053757,-0.15233893,-0.16980727,0.079911
 06,-0.02669952,-0.01596537,0.02027593,0.01869442,0.01233202,-0.0093638
 9,0.16053786,0.17362279,-0.00197581,-0.00115028,-0.00162987,0.00011012
 ,0.00035223,-0.00079005,0.00424635,0.00249066,0.00186327,0.16549773,0.
 10377191,-0.10624279,-0.01820618,-0.01308653,0.00538671,-0.00766699,-0
 .00114409,-0.00170746,-0.14200521,-0.09123390,0.10312020\\-0.00000741,
 0.00000115,0.00000833,0.00001863,-0.00000303,-0.00000256,0.00000702,-0
 .00000232,0.00000344,-0.00001665,0.00000819,-0.00006436,0.00001291,0.0
 0000272,0.00001391,-0.00000540,-0.00001549,0.00002073,-0.00000909,0.00
 000879,0.00002050\\\@


 NO SCIENCE HAS EVER MADE MORE RAPID PROGRESS IN A
 SHORTER TIME THAN CHEMISTRY.
   -- MARTIN HEINRICH KLOPROTH, 1791
 (FIRST PROFESSOR OF CHEMISTRY AT THE UNIVERSITY OF BERLIN)
 Job cpu time:  0 days  0 hours  0 minutes 45.8 seconds.
 File lengths (MBytes):  RWF=      9 Int=      0 D2E=      0 Chk=      1 Scr=      1
 Normal termination of Gaussian 09 at Wed Jan 18 09:38:21 2017.
