4
1a.log	Energy:  -35483.4642511
H          0.00000        0.94853       -0.24972
H          0.82145       -0.47426       -0.24972
H         -0.82145       -0.47426       -0.24972
N          0.00000        0.00000        0.10702
