7
1sa.log	Energy: -439335.7548990
H          1.45626       -0.85376       -1.13958
H         -1.45626        0.85376       -1.13958
O          0.00000       -1.27026        0.83254
O          0.00000        1.27026        0.83254
O          1.24570        0.04722       -0.85268
O         -1.24570       -0.04722       -0.85268
S          0.00000        0.00000        0.16259
