28
1sa1msa1eda_72.log	Energy: -975730.9933632
S         -0.67971        2.08861       -0.09959
O         -1.50426        1.67006        1.03884
O         -0.39391        0.83724       -0.94515
O         -1.10356        3.22047       -0.88519
O          0.77475        2.48999        0.47453
H          1.14005        1.72609        0.96220
S          2.13212       -0.87692        0.02501
O          1.49034       -2.18300       -0.09664
O          1.73830       -0.09481        1.20954
O          1.92793       -0.01993       -1.26669
H          0.98146        0.42149       -1.24313
C          3.89267       -1.07282        0.00210
H          4.16536       -1.57603       -0.92522
H          4.34873       -0.08547        0.06588
H          4.15590       -1.68271        0.86675
H         -2.80605       -1.95151        1.77133
H         -2.88081       -0.21072        1.35603
H         -4.40033       -1.55295       -0.12722
H         -3.10819       -0.76751       -1.03614
H         -3.28359       -3.61836       -0.42606
H         -2.85199       -2.87909       -1.82186
H         -0.58290       -1.00327        1.55883
H         -0.84957       -2.07751        0.30934
C         -2.60800       -1.20400        0.99812
C         -3.31749       -1.55389       -0.30421
N         -1.14907       -1.19123        0.73087
N         -2.79307       -2.82017       -0.81315
H         -0.91160       -0.42550        0.04885
