36
1sa1msa2dma_154.log	Energy: -1025810.3862723
S         -1.93110       -1.33454       -0.21431
O         -2.58596       -0.40999        0.72451
O         -1.95727       -0.96229       -1.62644
O         -0.55936       -1.69472        0.25967
O         -2.81476       -2.68335       -0.06129
H         -2.61221       -3.25942       -0.81092
S          2.55708       -0.49726       -0.07994
O          2.98081       -1.25669        1.08491
O          1.95319        0.81712        0.16973
O          1.61107       -1.34642       -1.00895
H          0.70952       -1.52245       -0.55734
C          3.92057       -0.28912       -1.19780
H          4.66213        0.31975       -0.67987
H          4.32490       -1.27366       -1.43101
H          3.56043        0.21329       -2.09492
N         -0.48164        1.09731        1.70033
C         -0.77303        2.47949        2.12564
C          0.23411        0.28081        2.70595
H         -1.36221        0.61226        1.42434
H          0.16357        2.97817        2.37905
H         -1.25398        2.99415        1.29502
H         -1.43345        2.46013        2.99367
H          1.21821        0.71506        2.88050
H         -0.35051        0.26285        3.62718
H          0.34086       -0.72788        2.30939
H          0.05880        1.14421        0.81897
N         -0.78041        1.90840       -1.13649
C          0.20261        2.79930       -1.73815
C         -2.14744        2.38922       -1.30866
H         -0.72116        0.99181       -1.57454
H          0.18530        3.76467       -1.21847
H          1.19952        2.37036       -1.61744
H          0.01629        2.99291       -2.80771
H         -2.27151        3.34418       -0.78217
H         -2.41351        2.55866       -2.36439
H         -2.84497        1.66223       -0.88703
