32
1sa1msa1a1eda_13.log	Energy: -1011241.2003427
S         -2.16983       -1.24970        0.12780
O         -1.60341       -2.51222        0.65500
O         -2.22307       -0.17678        1.14465
O         -1.58925       -0.83586       -1.15072
O         -3.71978       -1.57678       -0.23725
H         -4.16021       -1.87947        0.56852
S          2.75980       -0.03923        0.11494
O          2.34172        0.98786        1.10695
O          1.94314        0.00185       -1.12263
O          2.82407       -1.41437        0.68773
C          4.43416        0.38219       -0.33075
H          4.79083       -0.35251       -1.05273
H          4.42953        1.38091       -0.76755
H          5.04062        0.35952        0.57481
N          0.79957       -2.60838       -0.66613
H         -0.07679       -2.74395       -0.11204
H          1.60928       -2.35704       -0.04622
H          1.00280       -3.42401       -1.23547
H          0.65930       -1.78220       -1.26124
H          0.35854        2.81545       -0.88247
H         -0.33188        1.20969       -1.20167
H         -1.96059        3.01153       -1.83886
H         -2.57273        1.99910       -0.52839
H         -1.55155        4.72727       -0.24843
H         -2.91839        4.06946        0.36296
H          0.72418        1.46856        1.01182
H         -0.51863        2.58432        1.37539
C         -0.44161        2.12054       -0.61436
C         -1.81743        2.74786       -0.78358
N         -0.26190        1.76486        0.81730
N         -1.94935        3.87880        0.13970
H         -0.92014        0.99636        1.06405
