39
1sa1msa1dma1tma_68.log	Energy: -1050473.4243473
S          0.28840       -1.11058       -0.65874
O          1.36928       -1.05976       -1.66060
O         -0.87838       -1.91103       -1.08394
O          0.84746       -1.93561        0.60390
O         -0.09968        0.22178       -0.14779
H          1.68514       -1.50561        0.89925
H         -3.06248       -0.10185        0.28286
S          3.72957        0.52765        0.33195
O          5.09436        0.90185        0.62447
O          3.08141       -0.48792        1.17228
O          3.67524        0.06484       -1.17813
H          2.80280       -0.39130       -1.38759
C          2.69281        1.97426        0.35034
H          2.72885        2.37886        1.36280
H          3.09874        2.68926       -0.36526
H          1.67711        1.66619        0.08924
N         -2.88818       -1.12976        0.52870
C         -4.13025       -1.89921        0.34073
C         -2.31951       -1.21018        1.89082
H         -2.15542       -1.46735       -0.14877
H         -4.89601       -1.53463        1.02881
H         -4.47106       -1.77365       -0.68776
H         -3.94022       -2.95698        0.53040
H         -3.04521       -0.82654        2.61141
H         -2.07459       -2.24804        2.12141
H         -1.40702       -0.61381        1.91026
N         -3.30985        1.52707       -0.14787
C         -4.71052        1.93047       -0.07319
H         -5.31363        1.30050       -0.73373
H         -5.07762        1.81248        0.95083
H         -4.85337        2.98137       -0.37304
C         -2.47768        2.32214        0.75747
H         -2.84521        2.21297        1.78256
H         -1.44992        1.95624        0.70605
H         -2.49762        3.39185        0.49340
C         -2.80424        1.60865       -1.52116
H         -1.76639        1.26905       -1.53963
H         -3.40005        0.95956       -2.16985
H         -2.85921        2.63704       -1.91237
