29
1sa1msa1tma_49.log	Energy: -965630.5459301
S         -2.27713        0.71386        0.05681
O         -1.24228        0.47369        1.04758
O         -2.90035        2.00061       -0.06539
O         -1.76681        0.29555       -1.36498
O         -3.39289       -0.39368        0.39054
H         -1.15729       -0.49692       -1.30532
H         -4.20999       -0.17616       -0.08240
S          0.89604       -2.00296       -0.12142
O          2.15115       -1.37542       -0.46736
O         -0.24707       -1.81479       -1.03242
O          0.43308       -1.59795        1.34302
H         -0.17334       -0.81327        1.30808
C          1.13037       -3.74243        0.11919
H          1.48294       -4.14613       -0.83042
H          1.88399       -3.87414        0.89564
H          0.17863       -4.18651        0.40743
N          2.15088        2.61356        0.08248
C          3.45177        2.22239       -0.43327
H          3.64210        2.73509       -1.38125
H          4.23157        2.51907        0.27512
H          3.53153        1.13272       -0.60351
C          1.89478        1.99849        1.37243
H          2.65723        2.31532        2.09090
H          0.91707        2.31430        1.74750
H          1.90762        0.89291        1.32348
C          1.09560        2.30640       -0.86431
H          0.13820        2.67260       -0.48173
H          1.29219        2.80756       -1.81679
H          1.00504        1.22102       -1.06257
