36
1sa1msa1ma1tma_27.log	Energy: -1025813.7560734
S          1.32818        0.23828       -0.25720
O          0.86571        1.24235        0.74202
O          1.66955       -1.05489        0.34746
O          0.36020        0.15069       -1.38498
O          2.63938        0.82656       -0.92089
H          3.45473        0.56446       -0.35298
S         -2.12170       -1.86512        0.06462
O         -3.35500       -2.60224       -0.12259
O         -2.17660       -0.54495        0.69857
O         -1.44640       -1.71726       -1.35960
H         -0.72100       -1.01340       -1.35907
C         -0.96106       -2.85994        0.97189
H         -1.36878       -2.98894        1.97524
H         -0.87804       -3.82024        0.46274
H         -0.00244       -2.33483        0.99255
N          4.61194       -0.02145        0.61409
H          5.44968        0.54048        0.72442
C          4.93348       -1.37283        0.13044
H          5.60373       -1.92590        0.79839
H          3.99668       -1.92296        0.02445
H          5.39987       -1.29292       -0.85387
H          4.15859       -0.07254        1.52261
N         -1.39587        2.50228        0.18480
C         -2.29954        2.51525        1.36082
H         -2.72102        1.51778        1.47944
H         -1.71651        2.77669        2.24493
H         -3.08635        3.25612        1.19805
C         -0.71737        3.80656       -0.00849
H         -0.16867        4.05434        0.90044
H         -0.01260        3.71141       -0.83486
H         -1.46250        4.57509       -0.22745
C         -2.09467        2.06690       -1.05204
H         -1.34995        1.92560       -1.83475
H         -2.58375        1.11582       -0.84948
H         -2.82457        2.83114       -1.33123
H         -0.60293        1.82879        0.39390
