39
1sa1msa1dma1tma_100.log	Energy: -1050469.4111104
S         -1.92204       -1.55937       -0.35626
O         -2.95284       -0.68283        0.20121
O         -2.24603       -2.27028       -1.58154
O         -0.59769       -0.85233       -0.37399
O         -1.62798       -2.71116        0.77806
H         -2.19417       -3.46641        0.57135
S          2.59592       -0.53354       -0.04399
O          2.44691       -0.42384        1.40724
O          2.32662        0.67634       -0.81621
O          1.75313       -1.73853       -0.60024
H          0.75666       -1.50278       -0.55730
C          4.22424       -1.13424       -0.41673
H          4.92856       -0.38206       -0.06051
H          4.36906       -2.07953        0.10544
H          4.30521       -1.26266       -1.49560
N         -0.47228        1.98385       -1.36618
C          0.35300        3.10621       -1.78932
C         -1.77561        1.96692       -2.01881
H          0.01857        1.11798       -1.57155
H         -0.08426        4.04413       -1.42331
H          1.35536        2.99614       -1.36847
H          0.44645        3.18966       -2.88472
H         -2.33259        2.87076       -1.74274
H         -1.70819        1.94056       -3.11829
H         -2.34978        1.10108       -1.68149
N         -0.66613        1.33448        1.53970
C          0.47150        2.26381        1.75247
H          1.39834        1.69132        1.72143
H          0.46085        3.00066        0.95119
H          0.34870        2.74618        2.72482
C         -1.96705        2.05014        1.53469
H         -1.91776        2.82775        0.77309
H         -2.74567        1.33093        1.28015
H         -2.13276        2.48505        2.52281
C         -0.64929        0.21659        2.52056
H         -1.49252       -0.44040        2.31346
H          0.29011       -0.32392        2.40600
H         -0.73101        0.64027        3.52417
H         -0.56011        0.93817        0.58587
