26
1sa1msa1dma_43.log	Energy: -940992.4409838
S          2.11297       -0.87687       -0.13771
O          2.06256       -2.00171       -1.05219
O          0.87391       -0.67059        0.66708
O          3.27488       -1.20748        0.95445
O          2.57021        0.41964       -0.68814
H          3.27623       -2.16304        1.09962
H          1.61092        1.60938       -0.25353
S         -2.36589       -0.35262        0.00560
O         -2.04560        0.20972       -1.30344
O         -2.33834        0.56929        1.13827
O         -1.47123       -1.61620        0.30293
H         -0.50099       -1.33627        0.41705
C         -3.94740       -1.15478       -0.07175
H         -4.68424       -0.37926       -0.28226
H         -3.91996       -1.89178       -0.87364
H         -4.14250       -1.62460        0.89166
N          1.05571        2.49229       -0.04142
C          0.44339        2.40161        1.31014
C          0.07603        2.71084       -1.13664
H          1.74671        3.24190       -0.04901
H         -0.32504        1.62898        1.29677
H          1.21999        2.13374        2.02592
H         -0.00100        3.36565        1.56400
H         -0.61778        1.86856       -1.15969
H         -0.46682        3.63979       -0.95437
H          0.61796        2.76520       -2.08095
