23
1sa1msa1ma_38.log	Energy: -916326.7589165
S          2.15298       -0.71818       -0.04951
O          1.69806       -2.01414       -0.54186
O          2.34422        0.30531       -1.10770
O          1.38336       -0.17218        1.09500
O          3.62482       -0.96272        0.60529
H          4.10503       -1.56858        0.02523
S         -2.50622       -0.20808        0.07213
O         -3.22431        0.04169        1.30893
O         -1.82615        0.89616       -0.59601
O         -3.57364       -0.78390       -1.00211
H         -4.43888       -0.83036       -0.57002
C         -1.39008       -1.56776        0.24544
H         -0.60086       -1.24848        0.93190
H         -1.94804       -2.41574        0.64147
H         -0.94842       -1.79099       -0.72608
N          0.66019        2.14532       -0.09373
H         -0.29864        1.88781       -0.36724
H          0.86453        1.57802        0.74943
C          0.86193        3.59560        0.07731
H          1.89064        3.77590        0.38774
H          0.67260        4.09954       -0.87007
H          0.17561        3.97079        0.83609
H          1.31487        1.69613       -0.77312
