42
1sa1msa2tma_09.log	Energy: -1075144.3905212
S         -0.01702       -1.87865        0.32516
O          0.57515       -0.85321       -0.81099
O         -0.84012       -2.84702       -0.40524
O          1.18817       -2.40472        0.96638
O         -0.83929       -0.99571        1.20123
H         -2.16477       -0.46387        0.26282
S         -0.05593        2.40099        0.00668
O         -0.40736        3.74356       -0.45132
O          1.39131        2.09226        0.08288
O         -0.77775        1.32083       -0.77399
H          0.03667        0.01223       -0.82412
C         -0.66804        2.22774        1.68042
H         -0.10700        2.91580        2.31388
H         -1.72600        2.49528        1.69043
H         -0.52397        1.19029        1.98777
N          3.22597       -0.34997       -0.25045
C          3.79383       -1.68458       -0.56943
H          3.28714       -2.42629        0.04734
H          3.60894       -1.89858       -1.62259
H          4.86815       -1.66730       -0.37251
C          3.78418        0.71413       -1.12307
H          3.61110        0.43673       -2.16364
H          3.26373        1.64514       -0.89969
H          4.85665        0.79837       -0.93286
C          3.37042       -0.02193        1.19346
H          2.88413        0.93832        1.36417
H          2.86916       -0.80561        1.76225
H          4.43459        0.02338        1.43696
H          2.19858       -0.41260       -0.43923
N         -3.10514       -0.47061       -0.21016
C         -2.88664       -0.66399       -1.66998
H         -2.31434        0.18522       -2.04132
H         -2.32382       -1.58829       -1.80594
H         -3.86110       -0.72430       -2.16063
C         -3.81984       -1.62686        0.38683
H         -3.21906       -2.51964        0.20789
H         -3.91682       -1.46255        1.46010
H         -4.80565       -1.71617       -0.07517
C         -3.77071        0.82244        0.07250
H         -3.86143        0.94362        1.15281
H         -3.15131        1.61706       -0.34404
H         -4.76218        0.82087       -0.38600
