41
1sa1msa1tma1eda_119.log	Energy: -1085207.5512851
S          1.05973        0.33544       -0.93189
O          0.51881       -0.68471        0.02494
O          2.05565       -0.20825       -1.85096
O         -0.03846        1.10026       -1.56454
O          1.78818        1.40199        0.00618
H         -1.08743        1.77058       -0.48512
H          2.77284        1.09866        0.20077
S         -2.77019       -1.50670        0.18231
O         -3.11596       -0.32188       -0.60399
O         -2.70865       -1.32282        1.62954
O         -1.45987       -2.16967       -0.36197
H         -0.63465       -1.55223       -0.24602
C         -3.91934       -2.80720       -0.19706
H         -4.89935       -2.47115        0.14296
H         -3.91561       -2.96716       -1.27480
H         -3.61193       -3.70560        0.33721
H          5.49128       -0.67242        1.52415
H          4.04101       -0.07729        2.36882
H          3.91059       -2.48384        1.64989
H          2.58765       -1.49179        1.02804
H          4.15111       -3.04296       -0.51189
H          3.38759       -1.70700       -1.08046
H          4.84626        1.43731        0.62336
H          4.54458        0.27869       -0.49383
C          4.42800       -0.42670        1.40555
C          3.66741       -1.67360        0.95486
N          4.24638        0.64555        0.41140
N          4.07051       -2.04075       -0.40354
N         -1.46797        2.43928        0.24046
C         -1.29837        1.79550        1.57078
H         -1.89506        0.88396        1.61003
H         -0.24461        1.54703        1.69825
H         -1.62442        2.49898        2.34098
C         -0.61821        3.65026        0.11775
H          0.42065        3.35332        0.26457
H         -0.73718        4.06183       -0.88473
H         -0.92953        4.38174        0.86716
C         -2.89163        2.72273       -0.05997
H         -2.96030        3.14513       -1.06305
H         -3.44139        1.78334       -0.02097
H         -3.27195        3.43702        0.67442
