33
1sa1msa1ma1dma_197.log	Energy: -1001139.0904299
S         -1.12033        0.25242        0.44462
O         -2.20796        1.22128        0.67817
O          0.00916        0.38190        1.38786
O         -1.62486       -1.13891        0.33252
O         -0.56729        0.66374       -1.00094
H         -3.37373       -1.06034        0.00470
H          0.30096        0.21806       -1.15280
S          2.82441       -0.89134       -0.15844
O          3.92248        0.05425       -0.12287
O          1.77489       -0.69471       -1.16838
O          2.15392       -1.03629        1.26231
H          1.29599       -0.50070        1.33028
C          3.48050       -2.52899       -0.35494
H          3.99391       -2.55059       -1.31659
H          4.18199       -2.71203        0.45886
H          2.65516       -3.23955       -0.33460
N          2.13851        2.74080        0.62691
H          2.98917        2.20343        0.75783
C          1.93179        3.01550       -0.79043
H          1.96063        2.12910       -1.44333
H          0.96055        3.49982       -0.92572
H          2.69953        3.71234       -1.14177
H          1.37326        2.18897        1.00188
N         -4.16612       -0.39723       -0.14700
C         -5.37429       -0.79529        0.59934
C         -4.35324       -0.19603       -1.60092
H         -3.72021        0.45994        0.25505
H         -5.75707       -1.73401        0.19616
H         -5.11196       -0.92398        1.64929
H         -6.13204       -0.01663        0.50193
H         -4.69314       -1.12796       -2.05443
H         -5.09139        0.59036       -1.76350
H         -3.39491        0.10025       -2.02896
