40
1sa1msa2eda_183.log	Energy: -1095284.4433242
S          0.37575       -1.48705       -0.80116
O          1.49005       -2.35522       -1.16703
O         -0.89668       -2.40953       -0.74340
O          0.55368       -0.90867        0.58654
O          0.10161       -0.36992       -1.73635
H          1.80758       -1.29327        1.26543
H         -0.51907        0.92068       -0.82459
S         -3.42767        0.17178        0.32373
O         -3.42495        1.20702       -0.73226
O         -2.54398        0.55992        1.46663
O         -3.13507       -1.19774       -0.17697
H         -1.73314       -1.88868       -0.52570
C         -5.08173        0.07754        0.98288
H         -5.34525        1.05715        1.38184
H         -5.75137       -0.20297        0.16970
H         -5.09220       -0.67763        1.76867
H          0.37372        3.15967        0.91459
H          1.10645        1.54115        0.84237
H          1.56792        1.81456       -1.56608
H          0.84923        3.42956       -1.55801
H          3.31806        3.35707       -1.30597
H          2.61365        4.10537       -0.04420
H         -1.24883        1.28419        0.64355
H         -1.35458        2.34569       -0.60825
C          0.57984        2.30338        0.26549
C          1.40953        2.70405       -0.94828
N         -0.70161        1.70571       -0.15265
N          2.71266        3.20568       -0.50574
H          4.77475       -1.84518        1.16039
H          3.51762       -2.31334       -0.03703
H          4.77677       -0.22097       -0.71345
H          3.03608        0.00003       -0.55273
H          5.06272        0.99592        1.29066
H          3.71924        1.73836        0.68528
H          2.75744       -2.23878        2.35344
H          3.00047       -0.57467        2.24969
C          3.83588       -1.55525        0.67909
C          3.95462       -0.18637        0.01170
N          2.78913       -1.43704        1.72945
N          4.09230        0.85186        1.03274
