35
1sa1msa1ma1eda_267.log	Energy: -1035880.5197645
S          0.43693       -1.53341        0.13048
O         -0.72884       -2.38059       -0.20283
O          0.60616       -0.39921       -0.78710
O          0.15305       -0.91133        1.59131
O          1.68423       -2.29799        0.35067
H         -0.72167       -0.46137        1.55477
H          2.91119       -1.28608        0.51725
S         -2.95085        0.28886       -0.23481
O         -2.58438        1.42487       -1.05931
O         -2.31602        0.17318        1.08671
O         -2.78179       -1.06524       -1.01667
H         -1.95764       -1.59218       -0.72124
C         -4.71143        0.29301        0.00068
H         -4.96303        1.22244        0.51218
H         -5.18411        0.25394       -0.98054
H         -4.98272       -0.57272        0.60373
N          0.48193        2.52839       -0.06036
H         -0.08206        3.16556       -0.61334
C          0.09920        2.62538        1.35038
H         -0.95888        2.40263        1.53684
H          0.69826        1.91709        1.93071
H          0.31827        3.63040        1.72415
H          0.25697        1.59479       -0.40351
H          5.35905       -0.01386       -0.59452
H          4.20663       -1.10409       -1.40960
H          4.00144        1.39919       -2.07145
H          2.50584        0.63372       -1.50178
H          4.05578        2.61502       -0.07231
H          2.41009        2.31787       -0.08557
H          4.43030       -1.07502        1.21566
H          3.44873        0.28704        0.99774
C          4.30191       -0.25912       -0.72641
C          3.50118        0.96713       -1.19759
N          3.74886       -0.63503        0.60333
N          3.35006        1.88811       -0.07647
