36
1sa1msa2dma_59.log	Energy: -1025816.6001785
S         -0.86544       -1.18461       -0.55079
O          0.00648       -2.25637       -1.08203
O         -0.56487       -0.86478        0.86284
O         -0.84394        0.05097       -1.39014
O         -2.32497       -1.75330       -0.64962
H         -3.00992       -1.03255       -0.33890
S          1.66222        2.08176        0.00169
O          2.40170        3.32150       -0.08682
O          2.42306        0.86586        0.33684
O          0.90785        1.87748       -1.35833
H          0.25474        1.08565       -1.35718
C          0.35406        2.23027        1.19893
H          0.82788        2.41778        2.16342
H         -0.27299        3.07330        0.90787
H         -0.19885        1.28644        1.21332
N          2.28857       -1.87155        0.29023
C          2.14418       -2.47441        1.63160
C          3.52733       -2.23070       -0.42729
H          1.44556       -2.12795       -0.28726
H          2.96496       -2.14170        2.26930
H          1.18596       -2.14843        2.03647
H          2.16012       -3.56131        1.53709
H          4.39105       -1.90155        0.15232
H          3.56185       -3.31164       -0.57107
H          3.52497       -1.72895       -1.39466
H          2.24097       -0.83688        0.37190
N         -3.99409        0.06712        0.20640
C         -3.73420        1.33604       -0.48193
C         -3.77617        0.14965        1.65390
H         -4.95079       -0.22254        0.02483
H         -2.67846        1.58922       -0.36333
H         -3.92199        1.21383       -1.55013
H         -4.35269        2.15524       -0.09035
H         -2.71048        0.31005        1.83719
H         -4.35201        0.96217        2.11802
H         -4.05340       -0.79951        2.11730
