32
1sa1msa1a1eda_166.log	Energy: -1011231.2600844
S         -0.01385        1.57909        0.04708
O          0.19235        0.19431        0.59457
O         -1.10128        2.28936        0.70259
O          1.27294        2.28441       -0.07183
O         -0.43954        1.34026       -1.49869
H         -1.27420        0.81553       -1.49227
S         -3.04575       -0.92606        0.08189
O         -3.93352       -2.06598        0.03475
O         -2.48700       -0.42356       -1.18294
O         -1.85136       -1.28944        1.05190
H         -1.05787       -0.67042        0.90991
C         -3.84453        0.43455        0.90080
H         -4.68051        0.73942        0.26998
H         -4.19931        0.08059        1.86868
H         -3.11692        1.24300        1.00698
N          1.24599       -1.23849       -1.88354
H          1.36153       -1.96430       -2.58300
H          0.73359       -0.46746       -2.30997
H          0.62440       -1.59227       -1.15992
H          3.63562        0.39796        1.62280
H          2.31937       -0.72957        1.26968
H          4.46478       -1.95936        1.76323
H          3.92867       -2.24927        0.10571
H          6.10190       -0.45024        0.89044
H          6.12195       -1.65663       -0.21191
H          2.52966        1.14945       -0.30413
H          4.00642        0.44182       -0.81208
C          3.28986       -0.37021        0.92543
C          4.31930       -1.48395        0.78454
N          3.08789        0.26883       -0.39547
N          5.54145       -0.93407        0.19639
H          2.51878       -0.36787       -1.02677
