27
1sa1msa1a1ma_184.log	Energy: -951817.1314323
S         -2.32043        0.15807       -0.51411
O         -1.54856        1.37099       -0.76351
O         -3.49472       -0.11276       -1.30883
O         -1.37124       -1.09367       -0.68143
O         -2.68496        0.16576        1.00720
H         -0.47231       -0.89803       -0.29679
H         -3.48742       -0.47989        1.17382
S          1.70866        0.81294        0.14233
O          2.36860        0.92362       -1.14497
O          0.95241       -0.42570        0.40655
O          0.74427        2.04790        0.39611
H         -0.14096        1.88086       -0.03054
C          2.87135        1.05157        1.45117
H          3.62768        0.26944        1.30792
H          3.30843        2.04305        1.33031
H          2.34702        0.95855        2.40134
N         -4.74480       -1.41643        1.20831
H         -5.47928       -1.12568        1.84561
H         -4.53030       -2.39120        1.39384
H         -5.09908       -1.34726        0.25647
N          4.56691       -1.20618       -0.17342
H          4.26188       -0.64128       -0.96145
C          3.86327       -2.48997       -0.16769
H          4.01451       -3.09408       -1.07344
H          4.19146       -3.07780        0.69441
H          2.79148       -2.30785       -0.05438
H          5.56651       -1.34555       -0.27261
