26
1sa1msa1dma_68.log	Energy: -940973.8117651
S          3.14228       -0.49658       -0.13275
O          4.34127       -1.02244       -0.71989
O          1.91904       -1.27927       -0.09247
O          3.41459       -0.13574        1.41041
O          2.86360        0.90017       -0.78697
H          4.30804        0.22757        1.50067
H          1.95636        1.24030       -0.52318
S         -0.76178        0.90455       -0.04611
O         -1.33603        0.73475       -1.36605
O          0.50514        1.65467        0.05080
O         -0.54918       -0.50656        0.66239
H          0.33793       -0.87347        0.41695
C         -1.94044        1.61455        1.06076
H         -2.14914        2.61639        0.68281
H         -2.83494        0.97907        1.00699
H         -1.49950        1.65308        2.05594
N         -4.03498       -0.55302       -0.12480
C         -5.43138       -0.30101       -0.44590
C         -3.81083       -1.88907        0.40932
H         -3.46386       -0.42156       -0.95486
H         -6.02476       -0.31521        0.47489
H         -5.53507        0.68902       -0.89833
H         -5.86355       -1.04557       -1.13612
H         -4.32332       -1.98647        1.37266
H         -4.18080       -2.69103       -0.25171
H         -2.74190       -2.03991        0.57769
