39
1sa1msa1dma1tma_132.log	Energy: -1050462.8784419
S         -1.13162       -1.81208       -0.47655
O          0.11392       -2.43998       -0.96034
O         -2.32309       -2.63712       -0.47442
O         -0.89126       -1.46068        1.09333
O         -1.33117       -0.46723       -1.11394
H         -0.00637       -1.03105        1.18563
H         -2.27865        0.34726       -0.26282
S          2.66151       -0.64291        0.41508
O          3.36634       -1.69320        1.12329
O          1.44815       -0.09768        1.06240
O          2.29175       -1.07396       -1.05585
H          1.43995       -1.63064       -1.06973
C          3.75553        0.70232        0.06165
H          4.13421        1.05221        1.02322
H          4.57095        0.31293       -0.54821
H          3.19150        1.48865       -0.45372
N          1.59342        3.00886       -0.87428
C          1.30197        3.35168        0.50747
C          0.51228        2.27754       -1.51587
H          1.81414        3.84509       -1.40305
H          1.19743        2.42661        1.08511
H          2.12951        3.92608        0.93308
H          0.37586        3.94475        0.62787
H          0.35799        1.31951       -1.01148
H         -0.44862        2.82935       -1.50697
H          0.76819        2.06212       -2.55565
N         -2.94395        0.93064        0.35934
C         -3.82855       -0.03010        1.06654
H         -4.33910       -0.64656        0.32660
H         -3.20811       -0.67508        1.68835
H         -4.54824        0.52440        1.67405
C         -2.08934        1.69109        1.29977
H         -1.49572        0.98195        1.87616
H         -1.42286        2.33400        0.72439
H         -2.71802        2.29325        1.96068
C         -3.70080        1.81856       -0.54958
H         -2.99536        2.43495       -1.10828
H         -4.27229        1.20348       -1.24507
H         -4.37467        2.45231        0.03236
