33
1sa1msa1ma1dma_144.log	Energy: -1001152.2281815
S          1.77732       -1.18930        0.23980
O          2.64805       -0.01934        0.01046
O          0.98745       -1.15795        1.46687
O          0.97526       -1.49465       -0.97893
O          2.76391       -2.45320        0.45087
H          3.37668       -2.49433       -0.29592
S         -2.34567       -0.54518       -0.30188
O         -3.72004       -0.54417       -0.74923
O         -1.58113        0.70728       -0.41532
O         -1.59078       -1.68547       -1.08610
H         -0.58507       -1.62480       -0.99533
C         -2.25540       -1.07190        1.39252
H         -2.75286       -0.30984        1.99399
H         -2.77567       -2.02636        1.47241
H         -1.20093       -1.16851        1.66166
N          0.59578        1.88596        1.95047
H          0.65494        0.86966        1.91251
C         -0.70191        2.30122        2.48354
H         -0.94924        1.86705        3.46318
H         -0.72930        3.39091        2.58382
H         -1.48176        2.01735        1.77159
H          1.34349        2.17921        2.57126
N          0.85833        1.80278       -1.13546
C          0.87787        3.26979       -0.95927
C          0.92456        1.34895       -2.54365
H          1.62696        1.35480       -0.59934
H          0.01827        3.69957       -1.47561
H          0.82225        3.46293        0.11171
H          1.80244        3.66877       -1.37945
H          0.04696        1.71948       -3.07464
H          1.83552        1.73788       -3.00058
H          0.93740        0.25916       -2.54565
H         -0.00777        1.41927       -0.71547
