38
1sa1msa1dma1eda_215.log	Energy: -1060547.0856727
S          0.96800        2.02654        0.40651
O         -0.16520        1.21206       -0.12377
O          0.57396        3.29463        0.99309
O          1.90036        1.18755        1.18252
O          1.84221        2.38613       -0.93097
H          1.63384        3.29795       -1.17327
S         -3.11547       -0.35397       -0.21496
O         -4.45404       -0.68041        0.22415
O         -2.13928       -1.42453       -0.40110
O         -2.53565        0.70475        0.81990
H         -1.60993        0.97975        0.54710
C         -3.18739        0.59000       -1.72524
H         -3.54091       -0.08024       -2.50956
H         -3.88475        1.41436       -1.57774
H         -2.18454        0.95841       -1.94689
N          1.12358       -1.47613        1.50907
C         -0.13546       -1.59340        2.27046
C          2.16600       -2.44658        1.89545
H          0.93271       -1.56957        0.44630
H          0.06893       -1.47803        3.33677
H         -0.82506       -0.81992        1.93790
H         -0.58374       -2.56900        2.07789
H          2.45579       -2.28419        2.93557
H          1.76612       -3.45630        1.78108
H          3.01570       -2.30158        1.22551
H          1.48214       -0.50800        1.58559
H          2.52125        0.17372       -2.30198
H          3.65873       -1.10523       -2.72538
H          1.41998       -1.85655       -3.15174
H          2.14332       -2.82390       -1.85287
H          0.36363       -0.54071       -1.27323
H         -0.16750       -2.06980       -1.36762
H          4.48609       -0.59471       -0.72516
H          3.10108       -0.01429       -0.11456
C          2.89404       -0.81549       -1.99737
C          1.75942       -1.82941       -2.10580
N          3.49214       -0.78037       -0.65928
N          0.66257       -1.51285       -1.18610
