23
1sa1msa1ma_53.log	Energy: -916321.5402152
S          1.31166       -0.90211        0.04891
O          2.62647       -1.48122       -0.12138
O          0.30642       -1.55975        0.85822
O          1.44094        0.56870        0.57441
O          0.74736       -0.71108       -1.43119
H          2.30998        1.01713        0.14901
H         -0.18037       -0.38471       -1.38352
S         -2.77319        0.20529       -0.07291
O         -1.74862        0.36372       -1.09765
O         -3.63337       -0.96141       -0.08570
O         -3.72950        1.51346       -0.17311
H         -4.61302        1.21539       -0.43482
C         -2.04732        0.46432        1.52074
H         -1.31371       -0.33418        1.65824
H         -1.55026        1.43429        1.50927
H         -2.84092        0.42474        2.26588
N          3.60570        1.48965       -0.45263
H          3.66890        1.02357       -1.35470
C          4.71456        1.06022        0.41780
H          5.69791        1.27830       -0.01041
H          4.62386        1.56539        1.38135
H          4.61953       -0.01451        0.58087
H          3.64152        2.48938       -0.62860
