33
1sa1msa1a1tma_24.log	Energy: -1001159.2609563
S         -2.36827       -0.13754       -0.14265
O         -1.53920        1.05281       -0.33497
O         -1.86420       -0.84964        1.17877
O         -3.79418       -0.00144       -0.06590
O         -2.04146       -1.17384       -1.28103
H         -1.06501       -1.41902       -1.28077
S          1.39405       -1.59860       -0.02440
O          2.71056       -1.07874       -0.40698
O          0.48021       -1.83863       -1.17431
O          0.72384       -0.71950        1.00234
H         -0.85623       -0.84251        1.18605
C          1.63390       -3.17830        0.76256
H          2.10750       -3.84111        0.03807
H          2.27710       -3.03262        1.63047
H          0.65943       -3.56734        1.05931
N          0.08122        1.79610        2.48852
H         -0.89012        1.64446        2.22873
H          0.08395        2.19334        3.42215
H          0.51237        0.87619        2.54015
N          1.10833        2.03657       -0.43930
C          0.39433        3.33725       -0.35052
H         -0.59118        3.22010       -0.79862
H          0.29421        3.58625        0.70513
H          0.97977        4.08882       -0.88417
C          2.45451        2.10954        0.18825
H          2.31792        2.41858        1.22402
H          2.90981        1.11975        0.13864
H          3.05242        2.83887       -0.36232
C          1.17451        1.54599       -1.84320
H          1.72487        0.60580       -1.86178
H          0.15582        1.39315       -2.19756
H          1.68690        2.29809       -2.44656
H          0.55295        1.35378        0.10146
