40
1sa1msa2eda_289.log	Energy: -1095269.5307688
S          0.02062       -0.74792        0.01708
O          1.04886       -1.80648        0.02955
O         -1.28419       -1.13867        0.54008
O          0.51806        0.38950        1.06100
O         -0.05259       -0.05495       -1.29859
H          1.47004        0.58539        0.87867
H         -0.71297        1.39896       -1.23973
S          4.09126       -0.21877        0.10231
O          4.79492       -0.68667        1.27839
O          3.06318        0.82088        0.28915
O          3.46992       -1.40939       -0.71915
H          2.50509       -1.59024       -0.44836
C          5.26315        0.38368       -1.08730
H          5.77503        1.22876       -0.62610
H          5.96761       -0.41892       -1.30506
H          4.72488        0.69040       -1.98312
H         -2.76139        3.53486       -0.72527
H         -3.06251        1.80318       -1.15486
H         -3.30927        2.35048        1.35357
H         -2.19235        1.04290        0.96575
H         -1.52240        3.56089        2.14120
H         -0.61361        2.18802        1.99297
H         -0.92824        2.87979       -2.02982
H         -0.44357        2.84940       -0.41594
C         -2.42810        2.50109       -0.59921
C         -2.34731        2.12323        0.88331
N         -1.04117        2.40856       -1.13619
N         -1.22709        2.83170        1.50561
H         -4.74644        0.29466        0.26604
H         -5.67635       -0.12447       -1.16960
H         -6.13383       -1.76127        0.55241
H         -5.23306       -2.55519       -0.73242
H         -3.26569       -2.42956        0.65393
H         -4.10046       -1.68233        1.83229
H         -2.81373       -0.70833       -0.81643
H         -3.69284       -0.95674       -2.17201
C         -4.83168       -0.44350       -0.54538
C         -5.14789       -1.81432        0.07321
N         -3.61379       -0.36721       -1.34921
N         -4.19485       -2.31998        1.04843
