30
1sa1msa2ma_85.log	Energy: -976490.5274547
S         -1.49070       -0.32843        0.76676
O         -2.40277       -1.34851        1.26364
O         -0.04744       -0.53376        1.07784
O         -1.52992       -0.37533       -0.83425
O         -1.86668        1.06350        1.14865
H         -2.47205       -0.66835       -1.11936
H         -0.52982        1.94900        0.92155
S          3.02418       -0.39450       -0.08952
O          3.79979       -0.55108        1.12581
O          2.46878        0.94636       -0.35677
O          1.88452       -1.46321       -0.20801
H          1.03340       -1.16466        0.29448
C          4.01246       -0.86266       -1.48873
H          4.86520       -0.18373       -1.51555
H          4.34405       -1.88984       -1.33798
H          3.40857       -0.77138       -2.39061
N         -4.02983       -1.12655       -1.23267
H         -4.35960       -1.56637       -2.08526
C         -4.88247        0.00669       -0.84943
H         -5.92907       -0.27252       -0.68198
H         -4.48450        0.44506        0.06854
H         -4.84270        0.76692       -1.63325
H         -4.02968       -1.82760       -0.49479
N          0.31736        2.42887        0.49574
H          0.61074        3.20951        1.07787
C         -0.02524        2.85014       -0.88341
H          0.86041        3.25571       -1.37123
H         -0.37451        1.96516       -1.41528
H         -0.82142        3.59319       -0.84609
H          1.09383        1.74161        0.44585
