33
1sa1msa1ma1dma_120.log	Energy: -1001152.6300198
S          0.27082       -0.61162       -0.44771
O          0.85494        0.71163       -0.16849
O         -0.89415       -0.56103       -1.35928
O          1.28565       -1.61042       -0.84649
O         -0.26947       -1.18737        0.95137
H          2.76642       -1.13236       -0.26405
H         -1.09702       -0.70480        1.19282
S         -3.61332        0.35327        0.27593
O         -4.78932        1.12780        0.59913
O         -2.61637        0.11859        1.32837
O         -2.91105        1.04469       -0.96220
H         -2.05967        0.55446       -1.17243
C         -4.08508       -1.23694       -0.37240
H         -4.53776       -1.79802        0.44577
H         -4.80262       -1.07593       -1.17671
H         -3.18431       -1.73296       -0.73869
N          3.41898        1.88871       -0.78934
H          3.82862        2.20264       -1.66317
C          3.58278        2.90847        0.25390
H          3.15463        3.88043       -0.01646
H          3.08213        2.56510        1.16245
H          4.64465        3.04533        0.47592
H          2.42214        1.72815       -0.94937
N          3.61549       -0.70550        0.18803
C          4.81809       -1.49045       -0.13843
C          3.33878       -0.58138        1.63533
H          3.67820        0.27615       -0.22751
H          4.71129       -2.50258        0.25564
H          4.93043       -1.53440       -1.22210
H          5.69684       -1.01600        0.30284
H          3.19498       -1.57367        2.06590
H          4.17677       -0.07961        2.12358
H          2.42370        0.00002        1.75361
