28
1sa1msa1eda_109.log	Energy: -975730.5397366
S         -0.54359       -1.21410        0.21546
O         -0.26685        0.02312        1.06266
O          0.50086       -2.20999        0.38561
O         -1.93767       -1.62836        0.34605
O         -0.47204       -0.64067       -1.29469
H          0.42756       -0.25710       -1.42706
S          2.94040        0.60298       -0.16988
O          4.03354        1.54422       -0.25576
O          1.94711        0.58510       -1.25480
O          2.18981        0.86565        1.19926
H          1.25151        0.49544        1.18143
C          3.57369       -1.04648        0.01883
H          4.10206       -1.29094       -0.90352
H          4.25713       -1.04715        0.86779
H          2.72873       -1.71986        0.17973
H         -3.05840        0.22569        1.46069
H         -3.71723        1.87075        1.64856
H         -5.22870        0.12409        0.44328
H         -5.01005        1.65434       -0.41990
H         -3.46194       -0.78544       -0.99464
H         -4.48055        0.03676       -2.01813
H         -1.32388        1.18912        0.56797
H         -2.32746        1.22006       -0.78929
C         -3.39313        1.11775        0.92984
C         -4.49357        0.75129       -0.07623
N         -2.20624        1.61549        0.17100
N         -3.85736        0.12529       -1.22653
H         -2.14262        2.62884        0.12132
