36
1sa1msa1ma1tma_67.log	Energy: -1025809.9021111
S         -1.91684       -1.23212        0.26415
O         -1.53218        0.07042        0.82648
O         -2.51580       -1.19374       -1.06824
O         -0.83412       -2.24797        0.39465
O         -3.08290       -1.72246        1.28946
H         -3.46631       -2.53646        0.93605
S          2.09577       -0.94438       -0.39205
O          3.48336       -0.59042       -0.17108
O          1.21136        0.06105       -0.98770
O          1.50041       -1.41008        0.99326
H          0.53978       -1.72359        0.86205
C          1.98570       -2.41280       -1.39082
H          2.36602       -2.16256       -2.38163
H          2.59729       -3.18515       -0.92470
H          0.93584       -2.70905       -1.43288
N          0.57727        1.83475        2.02652
H          0.13325        2.12115        2.89344
C          2.03438        1.86086        2.17701
H          2.41829        1.19683        2.96215
H          2.50342        1.56061        1.23663
H          2.35871        2.88246        2.39980
H          0.25313        0.88450        1.85762
N         -0.69738        2.18092       -0.82677
C          0.50502        3.03773       -0.97625
H          0.80796        3.35494        0.02113
H          1.29572        2.44007       -1.42732
H          0.24962        3.89200       -1.60741
C         -1.15387        1.62137       -2.12623
H         -0.31344        1.10467       -2.58688
H         -1.95398        0.90399       -1.93730
H         -1.49908        2.44303       -2.75766
C         -1.79177        2.89076       -0.11867
H         -2.61701        2.19390        0.01818
H         -1.40866        3.19960        0.85347
H         -2.09595        3.75352       -0.71535
H         -0.44466        1.37795       -0.22609
