41
1sa1msa1tma1eda_25.log	Energy: -1085219.9286835
S          2.64858        1.05697       -0.34422
O          3.31357        0.05348       -1.17805
O          2.02940        2.16990       -1.08719
O          1.74211        0.47549        0.67490
O          3.80120        1.73582        0.58956
H          4.40173        2.22571        0.01158
S         -2.64759       -1.09693       -0.11069
O         -2.46406       -2.17706        0.87280
O         -1.36772       -0.79363       -0.84715
O         -3.26666        0.13755        0.41768
C         -3.76593       -1.72535       -1.35669
H         -3.33125       -2.62657       -1.78974
H         -4.71357       -1.95436       -0.86844
H         -3.90236       -0.95790       -2.11915
H         -1.36199        1.28823        1.36541
H          0.04825        2.36804        1.35683
H         -2.20172        3.43178        2.04592
H         -1.36238        4.28168        0.73927
H         -3.48199        2.29711        0.25363
H         -3.60220        3.93601        0.02289
H         -0.84780        0.80537       -0.69877
H         -1.45209        2.31528       -1.06453
C         -0.91801        2.16612        0.89626
C         -1.87919        3.35045        0.99897
N         -0.70702        1.83286       -0.54153
N         -2.96481        3.15027        0.04354
H          0.23590        2.10177       -0.86935
N          1.57274       -2.22718        0.42150
C          1.23769       -2.56272       -0.98867
H          0.21304       -2.23696       -1.17565
H          1.92898       -2.02025       -1.63489
H          1.34394       -3.64143       -1.12534
C          2.98855       -2.54349        0.73607
H          3.62444       -1.97683        0.05518
H          3.19389       -2.24485        1.76453
H          3.14594       -3.61776        0.61781
C          0.63207       -2.85620        1.38407
H          0.87931       -2.50732        2.38763
H         -0.39526       -2.57667        1.13568
H          0.75171       -3.94080        1.32806
H          1.48953       -1.18670        0.51498
