42
1sa1msa2tma_51.log	Energy: -1075125.8088049
S          0.14971       -1.05747        0.60644
O          1.26861       -1.95061        0.23533
O         -0.91384       -1.66420        1.38557
O          0.77465        0.06407        1.60077
O         -0.33616       -0.27882       -0.57413
H          1.62417        0.38493        1.21359
H         -1.15239        0.99377       -0.11156
S          4.00875        0.02324       -0.27174
O          5.01196       -0.45115        0.65969
O          2.96503        0.92385        0.25235
O          3.32085       -1.15892       -1.04660
H          2.48387       -1.49370       -0.56029
C          4.80861        0.84221       -1.62915
H          5.33610        1.70096       -1.21319
H          5.51183        0.14058       -2.07756
H          4.05094        1.15459       -2.34645
N         -1.60946        1.88758        0.24960
C         -0.51542        2.86769        0.44586
H          0.18661        2.46124        1.17274
H         -0.00402        3.01835       -0.50526
H         -0.93726        3.81006        0.80347
C         -2.58906        2.33310       -0.76929
H         -2.07184        2.46815       -1.72016
H         -3.35105        1.55336       -0.85148
H         -3.03505        3.27797       -0.44841
C         -2.27835        1.53661        1.52930
H         -3.04230        0.79055        1.31123
H         -1.53360        1.12048        2.20786
H         -2.72853        2.43788        1.95303
N         -4.24575       -0.54556       -0.57308
C         -3.49127       -1.03877       -1.71905
H         -3.52203       -0.29939       -2.52733
H         -2.44697       -1.19430       -1.43718
H         -3.90175       -1.98703       -2.11142
C         -4.18703       -1.50013        0.52904
H         -3.14592       -1.69035        0.80291
H         -4.70998       -1.09066        1.40027
H         -4.66411       -2.46236        0.26806
C         -5.62279       -0.25682       -0.93866
H         -6.16200        0.14006       -0.07292
H         -5.64977        0.49504       -1.73485
H         -6.16079       -1.15374       -1.29810
