39
1sa1msa1dma1tma_101.log	Energy: -1050470.3575453
S          1.41441       -1.88119        0.01563
O          0.89702       -1.81020       -1.35048
O          2.52312       -0.95727        0.29691
O          0.36369       -1.83039        1.06743
O          1.99785       -3.38661        0.22642
H          2.63977       -3.55511       -0.47607
S         -2.53771       -0.22217        0.03890
O         -2.22225       -0.26719       -1.38188
O         -2.05772        0.95288        0.77573
O         -2.10838       -1.53993        0.76824
H         -1.08418       -1.67589        0.81591
C         -4.29602       -0.35352        0.25685
H         -4.73960        0.52705       -0.20852
H         -4.63444       -1.26397       -0.23684
H         -4.51131       -0.38020        1.32452
N          0.57435        1.19261       -1.53421
C          1.83277        1.12182       -2.28134
C         -0.35501        2.16551       -2.10986
H          0.14189        0.26781       -1.57045
H          2.33229        2.09717       -2.24511
H          2.47799        0.37078       -1.82333
H          1.67254        0.86110       -3.33632
H          0.10249        3.16157       -2.08818
H         -0.60863        1.93135       -3.15268
H         -1.27506        2.17959       -1.52420
N          1.14308        1.95099        1.03075
C          2.60382        2.18056        0.94641
H          3.08697        1.21052        0.82421
H          2.81440        2.81200        0.08172
H          2.94822        2.67518        1.85844
C          0.37812        3.21679        1.08245
H          0.64104        3.82738        0.21725
H         -0.68479        2.97395        1.05351
H          0.62239        3.75458        2.00225
C          0.80658        1.07967        2.18547
H         -0.26287        0.87618        2.16146
H          1.35872        0.14686        2.09311
H          1.08089        1.60473        3.10530
H          0.86369        1.49055        0.07701
