27
1sa1msa1a1ma_39.log	Energy: -951835.4581727
S          1.27817        1.36979       -0.04692
O          1.51334        0.75032       -1.37196
O          0.71823        0.30944        0.88410
O          2.37792        2.10986        0.52174
O          0.08497        2.42709       -0.23255
H         -0.68420        1.97926       -0.64185
S         -2.34504       -0.31753        0.02983
O         -1.97753       -1.66453       -0.42488
O         -2.09279        0.76690       -0.92319
O         -1.67854        0.00279        1.40281
H         -0.65076        0.19129        1.25417
C         -4.05666       -0.32109        0.48571
H         -4.20920       -1.09497        1.23745
H         -4.30535        0.66543        0.87555
H         -4.62404       -0.53854       -0.41955
N          0.73908       -1.85311       -1.35910
H          0.89952       -2.40395       -2.19674
H          1.36899       -2.16224       -0.54611
H          0.98078       -0.84479       -1.52334
H         -0.25214       -1.90566       -1.07775
N          2.42774       -2.12380        0.79497
H          1.94143       -1.37916        1.29616
C          3.74107       -1.63054        0.35224
H          4.38033       -1.29914        1.17761
H          4.26023       -2.41979       -0.19831
H          3.59250       -0.78177       -0.32033
H          2.53280       -2.90885        1.42927
