36
1sa1msa2dma_89.log	Energy: -1025814.4309787
S         -1.75036        1.49241       -0.22451
O         -0.66788        2.42443       -0.64153
O         -1.93395        0.32919       -1.08402
O         -1.66992        1.16674        1.21513
O         -3.11052        2.35228       -0.43498
H         -2.97625        3.22659       -0.04504
S          2.26365        0.72349        0.09963
O          2.16460        0.24023       -1.27502
O          1.71427       -0.15349        1.13369
O          1.68652        2.17317        0.23065
H          0.71813        2.25410       -0.11683
C          3.96377        1.06746        0.48146
H          4.49501        0.11599        0.44511
H          4.35058        1.75676       -0.26841
H          4.01295        1.50201        1.47944
N         -1.07648       -1.55043        1.24147
C         -0.35823       -2.16283        2.37282
C         -2.44659       -2.06338        1.04376
H         -1.13613       -0.52059        1.36136
H         -0.25849       -3.23594        2.19495
H          0.62659       -1.70314        2.44179
H         -0.91476       -1.99669        3.29766
H         -2.40224       -3.13892        0.85828
H         -3.04669       -1.86541        1.93391
H         -2.87650       -1.54918        0.18382
H         -0.52834       -1.71773        0.31992
N          0.19897       -2.09135       -1.12223
C         -0.76368       -2.53113       -2.13053
C          1.29421       -3.03606       -0.92360
H          0.59527       -1.19535       -1.40487
H         -1.25612       -3.44898       -1.78956
H         -1.51696       -1.75243       -2.26295
H         -0.28833       -2.74053       -3.09982
H          0.89643       -3.97988       -0.53294
H          1.83894       -3.25396       -1.85351
H          1.99480       -2.62325       -0.19386
