30
1sa1msa2ma_48.log	Energy: -976493.2198469
S         -1.79487       -1.21924        0.21260
O         -1.35096       -0.74152        1.53727
O         -3.10336       -0.71680       -0.20011
O         -0.74822       -1.04894       -0.82856
O         -1.90102       -2.83439        0.32284
H         -2.53994       -3.04993        1.01585
S          2.47514       -0.19020       -0.16178
O          2.52404       -0.10347        1.29079
O          1.92306        0.98710       -0.85109
O          1.73248       -1.48372       -0.64055
H          0.71110       -1.35335       -0.67746
C          4.09587       -0.52579       -0.79897
H          4.72926        0.31528       -0.51597
H          4.45458       -1.44870       -0.34371
H          4.02837       -0.61983       -1.88208
N         -2.44950        2.21005       -0.68304
H         -3.01308        1.38898       -0.45493
C         -1.89127        2.04124       -2.03416
H         -2.65887        1.97582       -2.81349
H         -1.22734        2.87914       -2.26573
H         -1.30456        1.11962       -2.05568
H         -3.05882        3.02058       -0.64415
N         -0.21727        1.73914        0.91182
H         -0.48483        0.82076        1.31523
H          0.51114        1.55585        0.20356
C          0.28022        2.66573        1.94535
H          0.51756        3.62581        1.48643
H         -0.48880        2.80283        2.70581
H          1.17649        2.24077        2.39761
H         -1.08640        2.07987        0.39621
