30
1sa1msa1a1dma_86.log	Energy: -976493.5396006
S          1.62838        0.08329        0.37905
O          1.27475       -1.22236       -0.24932
O          0.85167        0.40956        1.57407
O          3.13309       -0.06954        0.84096
O          1.59730        1.18411       -0.63216
H          3.62887       -0.66186        0.17920
H          0.47259        2.21048       -0.36626
S         -2.22197       -1.22069       -0.13395
O         -3.48512       -1.82642       -0.50016
O         -2.04335        0.21883       -0.34464
O         -1.08983       -2.00673       -0.90523
H         -0.17337       -1.63855       -0.69036
C         -1.86056       -1.55676        1.57683
H         -2.64863       -1.08583        2.16623
H         -1.87081       -2.63732        1.71873
H         -0.88636       -1.12192        1.81489
N          4.15356       -1.76819       -0.94539
H          4.51518       -1.38277       -1.81111
H          3.24915       -2.19409       -1.13836
H          4.79105       -2.48828       -0.62373
N         -0.24626        3.00311       -0.27091
C         -0.98302        2.86469        1.01177
C         -1.11380        2.99079       -1.47500
H          0.30419        3.86071       -0.25419
H         -1.52902        1.92291        0.97483
H         -0.25796        2.82776        1.82345
H         -1.66588        3.70912        1.12605
H         -1.63641        2.03437       -1.49772
H         -1.82715        3.81527       -1.42072
H         -0.48285        3.09200       -2.35834
