27
1sa1msa1a1ma_58.log	Energy: -951833.2272699
S          2.09903       -0.83887       -0.04605
O          0.81439       -0.59581       -0.76904
O          3.13524        0.09442       -0.48832
O          1.90187       -0.96093        1.40427
O          2.58737       -2.32248       -0.47675
H          2.98911       -2.25889       -1.35404
S         -2.45508       -0.20816       -0.09646
O         -2.44643        0.66724       -1.25592
O         -2.18450        0.41923        1.20832
O         -1.50796       -1.44276       -0.29711
H         -0.53454       -1.15482       -0.47584
C         -4.01073       -1.05270        0.02177
H         -4.76875       -0.29063        0.20446
H         -4.19261       -1.56087       -0.92472
H         -3.96133       -1.76046        0.84847
N          0.36785        1.28460        1.98754
H          0.79371        1.92404        1.21787
H          0.93060        0.41025        1.98982
H          0.39599        1.73005        2.89964
H         -0.60674        1.03645        1.73929
N          1.47591        2.65269       -0.11586
H          1.93736        3.54443        0.03634
C          0.45571        2.77316       -1.17113
H          0.86414        3.14409       -2.11776
H          0.01028        1.79267       -1.34646
H         -0.33496        3.45141       -0.84036
H          2.19840        1.98967       -0.40561
