40
1sa1msa2eda_46.log	Energy: -1095295.4618446
S         -2.17773        1.36073       -0.41548
O         -1.59091        2.10571       -1.53121
O         -3.21880        0.39392       -0.76401
O         -1.13367        0.80825        0.50091
O         -2.88316        2.45981        0.56550
H         -3.63398        2.84009        0.08963
S          2.39785       -1.45811       -0.30217
O          1.93925       -2.10657        0.95739
O          3.13019       -0.18008       -0.06806
O          1.29205       -1.28372       -1.27348
C          3.58827       -2.57227       -1.02344
H          4.40080       -2.70553       -0.30899
H          3.09002       -3.52141       -1.22161
H          3.95667       -2.12791       -1.94809
H         -1.55971       -3.70320        1.46149
H         -1.69250       -2.27042        2.50864
H         -3.90872       -2.99258        1.44153
H         -3.45270       -1.31862        1.10864
H         -3.81379       -3.34448       -0.80623
H         -3.41029       -1.75582       -1.03256
H          0.19952       -2.12770        0.88754
H         -0.93946       -2.23489       -0.33603
C         -1.79268       -2.63567        1.48435
C         -3.18673       -2.36221        0.91217
N         -0.79710       -1.94513        0.63821
N         -3.18243       -2.60656       -0.52705
H         -0.93674       -0.91404        0.64565
H          2.10155        3.57697       -0.82032
H          0.37044        3.53323       -0.36502
H          1.67972        4.01039        1.61593
H          1.00660        2.38748        1.77152
H          3.47691        2.72714        2.29584
H          3.21715        1.53163        1.20666
H          0.91437        1.68149       -1.77102
H          2.05906        1.09351       -0.68102
C          1.34151        3.04999       -0.24015
C          1.74939        2.99079        1.22505
N          1.20272        1.67565       -0.79332
N          3.12549        2.53323        1.36608
H          0.43432        1.18992       -0.29163
