41
1sa1msa1tma1eda_191.log	Energy: -1085203.2362037
S          1.16874        1.93384        0.43455
O          1.13763        1.27768        1.73303
O          2.23044        1.46662       -0.49709
O         -0.14509        2.01201       -0.24172
O          1.58590        3.46850        0.77346
H          1.93514        3.86720       -0.03450
S          1.78144       -1.93873       -0.04234
O          2.10303       -3.27970       -0.48387
O          0.53719       -1.32527       -0.52165
O          2.98921       -1.00243       -0.43498
H          2.70972       -0.02961       -0.44745
C          1.76141       -1.87892        1.73312
H          0.94611       -2.52447        2.06309
H          2.71918       -2.25494        2.09290
H          1.59131       -0.84204        2.03232
H         -3.58403       -1.05165        2.89843
H         -2.59570       -2.27450        2.08857
H         -1.27324       -0.26346        2.68169
H         -1.27930       -0.56873        0.95434
H         -2.83702        1.49210        2.32624
H         -1.72472        1.66584        1.14023
H         -4.67571       -1.92992        0.91285
H         -4.29344       -0.35076        0.68177
C         -3.03571       -1.27857        1.96818
C         -1.91586       -0.25954        1.78933
N         -3.90381       -1.28358        0.78929
N         -2.46876        1.06159        1.48323
N         -1.39623        0.19695       -1.91941
C         -2.43601        1.25950       -1.89816
H         -3.03239        1.12885       -0.99347
H         -1.93802        2.22669       -1.85813
H         -3.04678        1.16728       -2.79850
C         -0.39332        0.41392       -2.99349
H          0.08294        1.37917       -2.82494
H          0.35321       -0.37628       -2.92506
H         -0.90130        0.38829       -3.95968
C         -2.00842       -1.15822       -1.98933
H         -1.21015       -1.89644       -1.94845
H         -2.68213       -1.28629       -1.13487
H         -2.55794       -1.23167       -2.93089
H         -0.86596        0.29063       -1.03881
