30
1sa1msa2ma_66.log	Energy: -976491.7877197
S          1.86972       -1.30699        0.32447
O          3.08386       -2.07538        0.48261
O          0.63061       -2.13217        0.52847
O          1.79370       -0.00690        1.00378
O          1.77748       -0.85047       -1.25250
H          1.72955       -1.64841       -1.79591
S         -2.24899       -0.33148       -0.18767
O         -1.49242       -0.39482       -1.43350
O         -2.72544        0.98428        0.25129
O         -1.42865       -0.92949        0.99172
H         -0.52334       -1.47113        0.73137
C         -3.65380       -1.41389       -0.30792
H         -3.29334       -2.41004       -0.56486
H         -4.16392       -1.41810        0.65492
H         -4.30471       -1.02307       -1.09051
N          0.57644        1.95800       -1.56104
H          0.45474        0.95416       -1.69868
C          1.99120        2.31852       -1.71226
H          2.40470        2.05512       -2.69219
H          2.11352        3.39481       -1.56059
H          2.56613        1.79001       -0.94870
H         -0.00190        2.41859       -2.25648
N         -0.12264        1.97107        1.07543
H          0.39370        1.10649        1.31229
H          0.08958        2.09416        0.01976
C          0.34046        3.11576        1.87887
H         -0.17374        4.02010        1.55223
H          0.13691        2.93969        2.93532
H          1.41443        3.23303        1.73320
H         -1.13075        1.79387        1.15227
