26
1sa1msa1dma_85.log	Energy: -940970.0451646
S         -2.14184       -0.79224       -0.14436
O         -3.40619       -1.27528       -0.61988
O         -1.20564       -0.12495       -1.03588
O         -2.38754        0.29068        1.01576
O         -1.42315       -1.96944        0.59623
H         -3.19492        0.06767        1.50239
H         -0.46421       -1.74134        0.78567
S          2.05060       -0.95606       -0.05020
O          2.54241       -2.09251       -0.79350
O          1.03813       -1.19242        0.99548
O          1.48749        0.16370       -1.02964
H          0.50145        0.10407       -1.08251
C          3.39929       -0.07195        0.68231
H          3.88737       -0.76075        1.37246
H          4.08140        0.22095       -0.11589
H          3.00209        0.79720        1.20548
N         -0.56706        2.97142        0.01936
C          0.14618        2.60985        1.22728
C          0.28010        3.61933       -0.96526
H         -1.01148        2.15389       -0.38183
H          0.43846        3.51703        1.76858
H         -0.50138        2.01723        1.87730
H          1.06694        2.02696        1.03489
H          0.62579        4.58179       -0.57112
H          1.17325        3.02791       -1.23810
H         -0.29294        3.81854       -1.87453
