27
1sa1msa1a1ma_59.log	Energy: -951833.0955807
S          0.95259        0.19320        0.69053
O         -0.18064        0.60382        1.54226
O          2.19989       -0.08979        1.39806
O          0.54800       -1.24306        0.06043
O          1.14271        1.10219       -0.47341
H         -0.37469       -1.18874       -0.28786
H          2.64560        0.83918       -1.07399
S         -3.09152       -0.13639       -0.17494
O         -4.01538       -0.92898        0.61016
O         -1.97069       -0.83041       -0.82823
O         -2.53369        1.08126        0.65341
H         -1.59452        0.90967        1.00679
C         -3.99311        0.73865       -1.43052
H         -4.45564       -0.01220       -2.07172
H         -4.75385        1.34556       -0.93974
H         -3.29466        1.35811       -1.99168
N          3.41950       -2.10203       -0.42106
H          2.42400       -2.27273       -0.56372
H          3.50902       -1.95830        0.58291
H          3.93065       -2.93986       -0.67727
N          3.64467        0.53851       -1.25686
H          3.65845       -0.51088       -1.05374
C          4.55694        1.25176       -0.33363
H          5.57520        0.88416       -0.46530
H          4.51538        2.32280       -0.53158
H          4.20716        1.05318        0.67961
H          3.87714        0.70293       -2.23320
