36
1sa1msa2dma_144.log	Energy: -1025811.1190151
S          0.99346        0.93613        0.39487
O          1.19311       -0.45913       -0.16922
O          0.12169        0.91366        1.58380
O          2.38364        1.44334        0.72979
O          0.40282        1.81764       -0.67443
H          3.37196        0.60404        0.25357
H         -0.99108        2.24055       -0.35874
S         -1.97815       -1.90603       -0.15027
O         -2.77761       -3.07169       -0.47685
O         -2.53423       -0.57995       -0.43760
O         -0.59109       -2.07120       -0.86926
H          0.08393       -1.33302       -0.60681
C         -1.55141       -1.93188        1.57956
H         -2.48628       -1.85897        2.13741
H         -1.05502       -2.87912        1.79056
H         -0.90277       -1.07511        1.78832
N         -1.97994        2.68587       -0.23488
C         -2.60880        2.21714        1.02427
C         -2.77353        2.39568       -1.45192
H         -1.80414        3.68746       -0.17125
H         -2.77927        1.14608        0.92263
H         -1.91039        2.39107        1.84159
H         -3.55138        2.74799        1.17836
H         -2.88202        1.31360       -1.52837
H         -3.75283        2.87344       -1.37677
H         -2.23258        2.77603       -2.31892
N          4.17385       -0.09843       -0.13779
C          3.97693       -0.25664       -1.59554
C          4.08052       -1.36758        0.61545
H          5.07256        0.34505        0.04243
H          2.97035       -0.64711       -1.74756
H          4.05477        0.72332       -2.06745
H          4.72642       -0.93689       -2.00744
H          3.07096       -1.75457        0.47423
H          4.82649       -2.08005        0.25473
H          4.23910       -1.15920        1.67406
