32
1sa1msa1a1eda_185.log	Energy: -1011228.7897679
S          0.12547        2.22431        0.10513
O          1.28507        1.73489        0.87912
O          0.21204        3.59611       -0.35914
O         -0.28282        1.21172       -0.90207
O         -1.15081        2.18683        1.14898
H         -1.25029        3.07802        1.50897
S         -2.57265       -1.30045       -0.15827
O         -1.25864       -1.76297        0.30814
O         -3.50792       -2.28194       -0.66043
O         -2.37944       -0.21221       -1.28314
H         -1.59131        0.39468       -1.10555
C         -3.31789       -0.38709        1.17330
H         -3.47776       -1.08773        1.99359
H         -2.63655        0.41548        1.46149
H         -4.26640        0.01180        0.81377
N          3.39555       -2.28475        1.92939
H          3.52214       -3.28696        2.01765
H          3.56075       -1.86747        2.83918
H          4.08108       -1.91619        1.26692
H          2.00785       -2.08921       -1.38437
H          1.09652       -0.59672       -1.70793
H          3.30679       -0.11117       -2.39817
H          3.06337        0.73511       -0.87134
H          4.65465       -1.68716       -1.27350
H          5.11119       -0.26598       -0.62659
H          0.46516       -1.33251        0.37035
H          2.05600       -1.53910        0.94809
C          1.89120       -1.03798       -1.10519
C          3.18038       -0.25751       -1.31710
N          1.43651       -0.98765        0.30792
N          4.33546       -0.91668       -0.69298
H          1.41691        0.00306        0.62978
