38
1sa1msa1dma1eda_183.log	Energy: -1060548.1507068
S          0.33842       -2.22232        0.03165
O          1.15215       -2.54654        1.20222
O         -1.11499       -2.46527        0.24785
O          0.60763       -0.91724       -0.58187
O          0.78246       -3.26422       -1.14094
H          0.71529       -4.16025       -0.78436
S         -2.48073        0.70687       -0.28413
O         -1.89613        1.34769       -1.45147
O         -1.75109        0.85025        0.98458
O         -2.80611       -0.79765       -0.54942
H         -2.06874       -1.45955       -0.23542
C         -4.12694        1.33526       -0.05461
H         -4.03780        2.40934        0.11002
H         -4.69599        1.13142       -0.96149
H         -4.57129        0.84153        0.80880
N          0.97630        1.14196        1.56762
C          1.02975        0.35808        2.81899
C          0.93558        2.60382        1.76107
H          1.81276        0.89049        0.95647
H          0.12558        0.54917        3.39914
H          1.09415       -0.70150        2.56426
H          1.91050        0.66044        3.38960
H          0.03565        2.86911        2.31840
H          1.82414        2.91484        2.31479
H          0.92714        3.06041        0.77043
H          0.12945        0.86365        1.05078
H          2.31266        0.53673       -2.59838
H          2.74880        2.23302       -2.80541
H          4.46025        1.06148       -1.56312
H          3.71959        2.33522       -0.57293
H          2.77376       -0.43883       -0.37206
H          4.00407        0.12924        0.55388
H          0.63762        2.51185       -2.10601
H          0.56317        1.12249       -1.29976
C          2.42204        1.49352       -2.06667
C          3.54105        1.35869       -1.03785
N          1.16162        1.92815       -1.46451
N          3.18435        0.40627        0.02387
