38
1sa1msa1dma1eda_135.log	Energy: -1060547.8808903
S         -0.96671        0.44368       -0.53225
O         -0.61113        1.46763        0.49679
O         -2.03887        0.87088       -1.42143
O          0.27839        0.01113       -1.25231
O         -1.41183       -0.85835        0.23829
H         -2.28937       -0.68558        0.77302
S          2.98232       -1.30327        0.09568
O          2.70222       -1.08246        1.50861
O          3.50685       -0.13267       -0.63295
O          1.75485       -1.89248       -0.66012
H          1.05880       -1.14019       -0.89472
C          4.13163       -2.64218       -0.08575
H          5.04893       -2.34724        0.42419
H          3.69687       -3.52577        0.38101
H          4.30841       -2.80408       -1.14834
N          1.96226        2.08867        0.16812
C          1.91196        3.19056       -0.81309
C          2.64157        2.40867        1.43917
H          0.96538        1.78850        0.36405
H          2.92743        3.48962       -1.07879
H          1.38201        2.83351       -1.69620
H          1.37287        4.03271       -0.37730
H          3.66916        2.71464        1.23541
H          2.10216        3.21339        1.94107
H          2.64175        1.50980        2.05690
H          2.44028        1.27568       -0.25990
H         -5.38503        0.79482        1.29599
H         -3.94486        1.32858        0.39507
H         -5.57175        0.31780       -1.14128
H         -4.08306       -0.62454       -1.07115
H         -6.64258       -1.35516        0.15454
H         -5.65882       -2.26039       -0.78704
H         -3.43132        0.02301        2.43592
H         -4.12598       -1.28313        1.70141
C         -4.51076        0.45275        0.72248
C         -4.96815       -0.33677       -0.49768
N         -3.63509       -0.40427        1.53802
N         -5.67179       -1.54871       -0.06680
