33
1sa1msa1ma1dma_141.log	Energy: -1001153.7864884
S         -0.73692       -1.73101        0.02461
O         -0.45067       -1.06351       -1.38602
O         -0.66399       -0.67836        1.03761
O         -1.96681       -2.46983       -0.11170
O          0.44538       -2.72947        0.22307
H          1.32128       -2.20937        0.20040
S          2.58080        0.21761       -0.08442
O          3.82142        0.77600       -0.59421
O          2.54954       -1.26608        0.03607
O          1.35604        0.69406       -0.85288
H          0.33579       -0.43154       -1.30452
C          2.32979        0.84264        1.57153
H          3.16965        0.50758        2.18097
H          2.31160        1.93290        1.52819
H          1.39100        0.43436        1.94995
N         -3.27975        0.46916       -0.64256
H         -3.92803        0.86184       -1.31884
C         -3.96203        0.23553        0.64071
H         -4.80394       -0.46016        0.56126
H         -3.24052       -0.18064        1.34660
H         -4.32997        1.18685        1.03571
H         -2.97911       -0.42601       -1.02507
N         -0.96422        1.97495       -0.12454
C         -1.11049        2.43104        1.27169
C         -0.89308        3.06466       -1.11792
H         -0.09674        1.40647       -0.21560
H         -2.04535        2.98568        1.37275
H         -1.12689        1.55092        1.91390
H         -0.27098        3.07616        1.53754
H         -1.81865        3.64297       -1.08972
H         -0.04174        3.70868       -0.89330
H         -0.75754        2.62401       -2.10555
H         -1.79652        1.34921       -0.35959
