24
1sa1msa2a_07.log	Energy: -927182.7916934
S         -2.64451        0.00226        0.08299
O         -1.59024       -0.14721       -0.96559
O         -2.72646       -1.18625        0.93405
O         -2.54567        1.30406        0.76033
O         -4.05788        0.11644       -0.70258
H         -4.34950       -0.77600       -0.93152
S          2.61310       -0.00457       -0.10087
O          2.48237        1.06794       -1.09947
O          2.55048       -1.38700       -0.65115
O          1.61161        0.16024        1.01260
C          4.22294        0.14739        0.64756
H          4.96913        0.01452       -0.13617
H          4.30329        1.14052        1.08967
H          4.32327       -0.62478        1.41021
N          0.03892       -2.09702        0.03372
H          0.05237       -1.78488        1.00523
H          1.02192       -2.01112       -0.33103
H         -0.33540       -3.03935       -0.02420
H         -0.58606       -1.42697       -0.47885
N         -0.03006        2.09405        0.02656
H         -1.01127        1.99819        0.37175
H          0.32605        3.04223        0.10068
H          0.59736        1.42632        0.54497
H         -0.00202        1.78896       -0.94761
