30
1sa1msa2ma_51.log	Energy: -976493.1210392
S         -2.28301       -0.77211        0.03784
O         -2.33799       -1.27662        1.40126
O         -2.73117        0.60790       -0.19774
O         -0.95482       -0.99939       -0.62405
O         -3.33491       -1.65156       -0.83344
H         -3.32673       -2.55155       -0.48100
S          2.33041       -0.61172       -0.11176
O          2.71724        0.17624        1.05350
O          1.88731        0.13219       -1.29612
O          1.26050       -1.68325        0.28117
H          0.30357       -1.43447       -0.04111
C          3.69686       -1.65041       -0.56357
H          4.52441       -0.99233       -0.82966
H          3.95476       -2.26601        0.29810
H          3.39655       -2.26498       -1.41155
N          0.59596        2.28144        1.55031
H          1.53332        1.88032        1.54128
C         -0.28111        1.44040        2.38288
H         -0.00313        1.44341        3.44256
H         -1.31706        1.77273        2.28434
H         -0.23348        0.40954        2.02671
H          0.66492        3.21680        1.93836
N         -0.39191        1.87435       -1.01600
H          0.00196        2.13173       -0.05391
H          0.18123        1.08389       -1.33839
C         -0.34395        3.00918       -1.95337
H         -0.77790        2.71759       -2.90990
H         -0.91092        3.84279       -1.53814
H          0.69400        3.30921       -2.09996
H         -1.35239        1.51286       -0.85756
