39
1sa1msa1dma1tma_83.log	Energy: -1050469.2991251
S         -1.33657        1.84230       -0.43404
O         -2.31614        2.01298        0.62690
O         -0.17941        2.77660       -0.40890
O         -0.86872        0.44809       -0.61630
O         -2.15687        2.22030       -1.78320
H         -1.52278        2.30951       -2.50740
S          2.35764        0.32392        0.04074
O          2.12413       -0.80330       -0.85202
O          1.67971        0.29561        1.33865
O          2.10243        1.69370       -0.68035
H          1.16432        2.08865       -0.53530
C          4.10921        0.47173        0.30580
H          4.44226       -0.45401        0.77576
H          4.59008        0.60457       -0.66310
H          4.29013        1.32743        0.95535
N         -0.50384       -2.44690       -1.23207
C         -1.62666       -2.29509       -2.14435
C          0.33596       -3.58834       -1.55950
H          0.06566       -1.60444       -1.26234
H         -2.33045       -3.12650       -2.01209
H         -2.14410       -1.35826       -1.92339
H         -1.32615       -2.28051       -3.20630
H         -0.21974       -4.51992       -1.39779
H          0.68873       -3.58454       -2.60484
H          1.21543       -3.59237       -0.90935
N         -1.06213       -0.99666        1.72394
C         -2.45073       -1.39438        1.37702
H         -3.00233       -0.49504        1.10096
H         -2.39580       -2.08109        0.53230
H         -2.90655       -1.87614        2.24500
C         -0.20680       -2.17435        2.01193
H         -0.23421       -2.81908        1.13266
H          0.80797       -1.81977        2.18765
H         -0.60087       -2.68339        2.89475
C         -1.03650       -0.00379        2.83047
H         -0.00363        0.30156        2.99004
H         -1.63569        0.85743        2.53254
H         -1.44799       -0.47319        3.72694
H         -0.69741       -0.52186        0.87103
