33
1sa1msa1ma1dma_216.log	Energy: -1001137.6210036
S          1.54126       -0.68656       -0.42815
O          2.10068        0.65593       -0.76195
O          0.40865       -1.08316       -1.27369
O          2.62845       -1.69127       -0.36124
O          1.01156       -0.57486        1.07337
H          4.14503       -0.89265       -0.29276
H          0.02099       -0.53078        1.10118
S         -2.72734       -0.52606        0.28274
O         -3.54110        0.66382        0.42557
O         -1.64793       -0.77314        1.24686
O         -2.16389       -0.63273       -1.18828
H         -1.16212       -0.67691       -1.19902
C         -3.80205       -1.94278        0.32089
H         -4.27900       -1.95888        1.30131
H         -4.54679       -1.82554       -0.46630
H         -3.20122       -2.83802        0.16420
N          4.60239        0.04648       -0.17278
H          5.43480        0.13711       -0.74913
C          4.84420        0.31854        1.26339
H          5.20895        1.33757        1.38816
H          3.89404        0.19801        1.78399
H          5.57055       -0.39441        1.65219
H          3.81364        0.63927       -0.53230
N         -0.63985        1.94461       -0.21027
C         -0.81509        2.58229        1.08276
C         -1.38862        2.59928       -1.26961
H          0.34535        1.91211       -0.45320
H         -1.85895        2.47838        1.39602
H         -0.18914        2.07960        1.82602
H         -0.56290        3.65877        1.08126
H         -2.45966        2.49813       -1.06826
H         -1.15675        3.67508       -1.37181
H         -1.17921        2.10689       -2.22336
