36
1sa1msa1ma1tma_125.log	Energy: -1025797.6773732
S         -1.65288        0.17569       -0.01264
O         -2.65464        1.26258        0.06453
O         -0.73908        0.12722        1.13996
O         -2.30321       -1.13901       -0.28251
O         -0.79422        0.54796       -1.30000
H         -3.93787       -0.89092       -0.59934
H          0.03972        0.01418       -1.30084
S          2.18815       -1.48679       -0.06507
O          3.56150       -1.03356       -0.15062
O          1.26671       -1.16088       -1.16050
O          1.56112       -1.04496        1.31028
H          0.69578       -0.53696        1.19705
C          2.18965       -3.25632        0.11314
H          2.64171       -3.67191       -0.78787
H          2.78148       -3.50837        0.99306
H          1.15822       -3.59054        0.22296
N         -4.75965       -0.23377       -0.50906
H         -4.21657        0.65469       -0.38146
C         -5.56065       -0.54783        0.69471
H         -6.32308        0.21701        0.83998
H         -6.02508       -1.52676        0.57995
H         -4.88260       -0.55937        1.54755
H         -5.30908       -0.20826       -1.36417
N          1.87548        1.96496        0.06899
C          2.48269        2.13236       -1.23869
H          3.23941        1.35859       -1.39424
H          1.71807        2.02908       -2.01506
H          2.96294        3.12455       -1.35757
C          0.82670        2.94405        0.29163
H          0.06904        2.86191       -0.49159
H          0.33911        2.75103        1.25114
H          1.21950        3.98075        0.29648
C          2.87291        2.02486        1.12260
H          2.39768        1.82959        2.08875
H          3.63397        1.25874        0.95543
H          3.36940        3.01474        1.17403
