23
1sa1msa1ma_64.log	Energy: -916314.0943572
S          2.81147       -0.44212       -0.03744
O          4.05347       -0.94818       -0.54942
O          1.62183       -1.27461        0.00795
O          3.01220        0.01943        1.49059
O          2.49924        0.90001       -0.78216
H          3.88597        0.42583        1.58818
H          1.56785        1.21573       -0.57069
S         -1.13778        0.79325       -0.18766
O         -1.62842        0.50384       -1.51873
O          0.09056        1.60656       -0.08051
O         -0.90367       -0.54841        0.64006
H          0.00015       -0.90358        0.44792
C         -2.40035        1.53097        0.79995
H         -2.63982        2.48300        0.32415
H         -3.26797        0.85373        0.78885
H         -2.00324        1.68385        1.80289
N         -4.78478       -0.67281        0.38298
H         -5.28935       -1.02169        1.19119
C         -4.03191       -1.75424       -0.26220
H         -4.65085       -2.60066       -0.59011
H         -3.50251       -1.35166       -1.12881
H         -3.27516       -2.12585        0.43288
H         -5.47878       -0.29636       -0.25448
