35
1sa1msa1ma1eda_273.log	Energy: -1035878.0769204
S         -0.14242        0.72972        0.96648
O         -1.40536        1.27803        1.44654
O          1.08204        1.37083        1.47405
O         -0.08696       -0.76162        1.11567
O         -0.17407        0.99035       -0.62503
H         -1.59532       -1.24929        1.34051
H          0.69500        0.71062       -1.00532
S          3.40389       -0.21811       -0.53826
O          4.70778       -0.32505       -1.15031
O          2.24765        0.08341       -1.39478
O          3.49947        0.87220        0.60220
H          2.58677        1.10725        0.94892
C          3.02924       -1.71109        0.35405
H          2.99657       -2.51755       -0.37965
H          3.82636       -1.87978        1.07798
H          2.05757       -1.58613        0.83840
N         -3.04247        1.69589       -1.64332
H         -2.03859        1.56354       -1.54457
C         -3.46093        2.84595       -0.83834
H         -2.99607        3.79742       -1.13289
H         -4.54731        2.96287       -0.90253
H         -3.19676        2.66046        0.20601
H         -3.22362        1.87112       -2.62613
H         -4.44216       -1.11960        0.42495
H         -3.18720        0.12846        0.18836
H         -3.43712       -1.27609       -1.85060
H         -1.83027       -1.41458       -1.14264
H         -3.92327       -3.45080       -1.04681
H         -2.32451       -3.62539       -1.32562
H         -2.96990       -1.14901        2.30785
H         -2.71006       -2.52585        1.36435
C         -3.37630       -0.94174        0.25598
C         -2.88456       -1.66350       -0.98890
N         -2.62830       -1.50380        1.41765
N         -3.00534       -3.11157       -0.77941
