32
1sa1msa1a1eda_269.log	Energy: -1011227.9216775
S         -0.70489        1.98954       -0.13662
O         -0.14135        1.08111       -1.30879
O         -0.40722        1.31843        1.12741
O         -0.18518        3.31831       -0.34728
O         -2.24801        1.99857       -0.37508
H         -2.58845        1.03926       -0.33448
S         -1.98822       -1.62925       -0.01875
O         -2.44758       -2.93514       -0.46155
O         -2.89405       -0.49179       -0.34356
O         -0.57768       -1.30684       -0.49237
H         -0.39044        0.11307       -1.12337
C         -1.85993       -1.65426        1.76249
H         -2.85700       -1.84190        2.16200
H         -1.18309       -2.46118        2.04714
H         -1.48715       -0.68179        2.08830
N          2.45665        2.16665        1.07957
H          1.84924        2.34734        1.87546
H          2.08095        2.74581        0.32967
H          3.38046        2.52057        1.30722
H          2.00786       -1.68077       -1.30149
H          2.26057        0.05934       -1.50843
H          4.43263       -1.21198       -1.69940
H          4.44817       -0.08427       -0.33946
H          4.07674       -2.98217       -0.12130
H          5.16267       -2.03222        0.64834
H          0.87849       -0.75378        0.42929
H          2.35883       -1.20676        1.11326
C          2.49333       -0.79883       -0.87617
C          3.99446       -1.00754       -0.71440
N          1.89719       -0.56210        0.46198
N          4.22090       -2.05971        0.27682
H          2.07752        0.43531        0.76275
