36
1sa1msa1ma1tma_23.log	Energy: -1025823.7539935
S          2.65635       -0.51169       -0.25397
O          2.66152       -1.98919       -0.32543
O          1.56202        0.06431       -1.06810
O          2.74226        0.05914        1.09080
O          4.04936       -0.03324       -0.95087
H          4.14072       -0.50447       -1.78978
S         -2.77699       -0.36790       -0.13609
O         -3.17596        0.73921        0.75177
O         -2.90567       -1.72541        0.42842
O         -1.38728       -0.14837       -0.68551
C         -3.85663       -0.29923       -1.55851
H         -4.87834       -0.45341       -1.21017
H         -3.75528        0.68185       -2.02357
H         -3.56481       -1.08545       -2.25487
N         -0.04917       -2.36066        0.10431
H         -0.45821       -1.47434       -0.29906
H         -0.67010       -3.11421       -0.18318
C          0.00526       -2.26013        1.58359
H          0.39165       -3.19230        1.99549
H          0.68599       -1.44892        1.84261
H         -1.00242       -2.06189        1.94701
H          0.91024       -2.47995       -0.26997
N          0.17227        2.14904        0.21599
C         -0.06861        1.79405        1.64111
H         -1.02006        1.26457        1.70478
H          0.76339        1.17161        1.97338
H         -0.11217        2.71671        2.22437
C          1.45767        2.87594        0.04892
H          2.25447        2.28000        0.49274
H          1.64698        3.01041       -1.01565
H          1.37484        3.84430        0.54717
C         -0.96673        2.91194       -0.35572
H         -0.80835        3.02043       -1.42893
H         -1.88813        2.36524       -0.15519
H         -0.99713        3.89440        0.12083
H          0.25943        1.25311       -0.30422
