33
1sa1msa1ma1dma_01.log	Energy: -1001172.3946541
S         -1.85369        1.29065        0.26069
O         -1.26699        0.43151        1.50133
O         -3.27777        1.35593        0.50753
O         -1.11390        2.57859        0.25781
O         -1.45811        0.50469       -0.95552
H          0.17583        2.34591       -0.69908
H         -1.44711       -1.08637       -0.69312
S          1.95101       -0.81445        0.31204
O          2.04160       -0.38976       -1.11173
O          1.22151       -2.09499        0.49179
O          1.43073        0.28357        1.17257
H         -0.27845        0.42367        1.46250
C          3.61687       -1.12956        0.86027
H          4.03476       -1.92097        0.23811
H          4.19071       -0.20899        0.75225
H          3.57572       -1.43794        1.90492
N          1.05397        2.19882       -1.27353
H          1.26611        1.17706       -1.28965
C          2.18477        2.92925       -0.66204
H          3.09029        2.76311       -1.24600
H          1.95105        3.99279       -0.61630
H          2.31435        2.53345        0.34514
H          0.86087        2.50233       -2.22502
N         -1.34454       -2.11194       -0.45509
C         -1.31571       -2.89685       -1.70322
C         -2.41082       -2.49033        0.49550
H         -0.40756       -2.17232        0.00080
H         -2.25933       -2.76248       -2.23433
H         -0.48963       -2.53698       -2.31703
H         -1.16601       -3.95246       -1.46991
H         -3.38125       -2.35593        0.01523
H         -2.27876       -3.53173        0.79424
H         -2.34193       -1.83087        1.36070
