29
1sa1msa1tma_42.log	Energy: -965635.5187670
S          2.26122       -0.59656       -0.09373
O          1.35288       -0.45526       -1.21433
O          3.55097        0.03682       -0.08917
O          1.54538       -0.20649        1.24601
O          2.45574       -2.18787        0.04593
H          0.57449       -0.44886        1.21265
H          3.20467       -2.36396        0.63426
S         -1.98463       -0.91235        0.09353
O         -3.01453        0.05957        0.38635
O         -0.90248       -1.10998        1.07013
O         -1.34653       -0.63547       -1.33067
H         -0.39445       -0.37518       -1.25046
C         -2.74303       -2.49056       -0.19386
H         -3.23945       -2.77743        0.73365
H         -3.46961       -2.37430       -0.99802
H         -1.96627       -3.20564       -0.46195
N         -0.32171        2.15478       -0.02516
C         -0.73284        2.45859        1.33792
H         -1.70053        1.99401        1.54276
H          0.00258        2.05981        2.04323
H         -0.82205        3.54776        1.51360
C          0.98427        2.73153       -0.30702
H          1.71961        2.36564        0.41453
H          1.31191        2.44098       -1.30930
H          0.97113        3.83667       -0.25040
C         -1.30753        2.64231       -0.97934
H         -1.00359        2.37297       -1.99552
H         -2.27766        2.18243       -0.77733
H         -1.42080        3.74236       -0.93272
