32
1sa1msa1a1eda_197.log	Energy: -1011230.0229808
S          1.11378       -1.60701       -0.44187
O         -0.04245       -2.53500       -0.57915
O          0.86290       -0.36152       -1.20417
O          1.11608       -1.15838        1.12530
O          2.42767       -2.20101       -0.62059
H          0.20307       -0.87281        1.34916
H          3.80069       -0.86279        0.43713
S         -2.38414       -0.12264        0.20852
O         -2.36223        1.10282       -0.57745
O         -1.43056       -0.19816        1.32982
O         -2.26524       -1.38910       -0.68966
H         -1.32447       -1.85518       -0.67096
C         -4.01905       -0.33962        0.86650
H         -4.22500        0.51666        1.50917
H         -4.71875       -0.37216        0.03150
H         -4.04020       -1.26990        1.43310
N          3.92078       -0.09168        1.09798
H          3.46405       -0.40531        1.95026
H          2.89825        1.17978        0.39408
H          4.91187        0.00875        1.29081
H          0.45454        1.45835        1.01825
H          1.57163        2.68109        1.65532
H         -0.56217        3.61227        0.63210
H          0.92928        4.29177       -0.03186
H         -0.65362        2.19109       -1.33323
H         -0.37228        3.70837       -1.87863
H          1.71172        1.03583       -0.77698
H          2.59384        2.45473       -0.70729
C          1.10695        2.29036        0.74707
C          0.32163        3.37915        0.01934
N          2.16325        1.72997       -0.13611
N          0.02694        2.94990       -1.33880
