39
1sa1msa1dma1tma_77.log	Energy: -1050472.6692086
S          1.20061       -0.11368       -0.99113
O          2.08849       -0.79451       -1.92607
O          0.51536       -1.04663       -0.03692
O          2.11077        0.80449       -0.03895
O          0.24053        0.83868       -1.58934
H          2.95596        0.25008        0.20375
H         -0.66839        1.71013       -0.49511
S         -2.87410       -1.15698        0.21531
O         -2.95358        0.09892       -0.53328
O         -2.77563       -1.03318        1.66683
O         -1.74123       -2.07164       -0.35741
H         -0.80031       -1.64015       -0.26569
C         -4.27943       -2.16305       -0.19634
H         -5.16302       -1.63791        0.16730
H         -4.31455       -2.28114       -1.27888
H         -4.17025       -3.12572        0.30225
N          4.11677       -0.81329        0.36804
C          3.68333       -1.83403        1.32422
C          5.45734       -0.29929        0.63067
H          4.06663       -1.19769       -0.57422
H          3.62514       -1.38643        2.32101
H          2.68565       -2.18113        1.04647
H          4.37286       -2.68883        1.36503
H          5.46543        0.20746        1.60044
H          6.21771       -1.09306        0.65152
H          5.72683        0.42766       -0.13884
N         -0.86591        2.44519        0.23617
C         -0.77588        1.77856        1.56321
H         -1.55893        1.02426        1.64079
H          0.20078        1.29994        1.63859
H         -0.89543        2.53613        2.34176
C          0.21433        3.45011        0.06458
H          1.17294        2.94159        0.16933
H          0.13864        3.87691       -0.93563
H          0.09666        4.23034        0.82032
C         -2.20746        3.02905       -0.00096
H         -2.23090        3.45601       -1.00413
H         -2.94618        2.23285        0.07368
H         -2.38847        3.80892        0.74277
