27
1sa1msa1a1ma_104.log	Energy: -951830.7033201
S          0.83072       -0.90935       -0.41415
O          0.61918        0.10754        0.70199
O          0.30096       -0.40569       -1.67480
O          2.22155       -1.36951       -0.40251
O         -0.01455       -2.18627        0.03468
H         -0.95482       -1.90560        0.14519
S         -2.85082        0.35399        0.22028
O         -4.10927        0.80400        0.77045
O         -2.46413       -1.05154        0.39870
O         -1.71039        1.27586        0.82273
H         -0.80964        0.82907        0.76968
C         -2.79177        0.71822       -1.51847
H         -3.56921        0.11934       -1.99454
H         -2.99159        1.78198       -1.64616
H         -1.80175        0.44379       -1.88921
N          2.95994        0.00081        2.00510
H          3.57793        0.39612        1.19361
H          1.96344        0.10730        1.67422
H          3.13809       -0.99881        2.08298
H          3.11905        0.46329        2.89514
N          4.14896        0.84716       -0.27242
H          5.14275        0.96803       -0.44004
C          3.39165        2.01351       -0.75614
H          3.53393        2.20152       -1.82510
H          2.32739        1.84079       -0.57865
H          3.69550        2.90328       -0.19880
H          3.84222        0.01432       -0.77732
