29
1sa1msa1tma_38.log	Energy: -965635.6004562
S          2.54145        0.57122        0.10622
O          3.93304        0.86420        0.29908
O          1.68656        0.19342        1.21800
O          1.80931        1.86535       -0.51063
O          2.42733       -0.48891       -1.04082
H          2.42162        2.32265       -1.10581
H          1.48378       -0.83253       -1.10564
S         -0.78625       -2.03465       -0.06058
O         -0.58899       -3.46316       -0.14098
O         -0.07315       -1.17505       -1.02896
O         -0.41228       -1.52270        1.40061
H          0.34692       -0.89173        1.37107
C         -2.50451       -1.63222       -0.13997
H         -2.86530       -1.98859       -1.10601
H         -3.00119       -2.16366        0.67263
H         -2.60064       -0.53990       -0.04271
N         -2.38487        1.60035        0.01076
C         -1.77490        1.89725       -1.27612
H         -0.83059        1.35590       -1.36832
H         -2.43905        1.57111       -2.08265
H         -1.57645        2.97742       -1.40710
C         -3.67654        2.25183        0.14708
H         -4.34593        1.92517       -0.65474
H         -4.13089        1.98067        1.10467
H         -3.59787        3.35432        0.10267
C         -1.49806        1.95436        1.10877
H         -1.94055        1.63906        2.05834
H         -0.53785        1.44810        0.99069
H         -1.30559        3.04206        1.15826
