33
1sa1msa1a1tma_53.log	Energy: -1001154.0981409
S          0.32987        0.68571       -0.70132
O          0.08757       -0.76293       -0.40945
O         -0.06111        1.54058        0.42517
O          1.71523        0.89732       -1.17443
O         -0.56403        1.05804       -1.96213
H         -1.50137        0.82942       -1.74764
S         -3.33764       -0.37366        0.21179
O         -4.62418       -1.01287        0.36901
O         -3.00393        0.23630       -1.08201
O         -2.22509       -1.44101        0.57493
H         -1.33097       -1.18651        0.18379
C         -3.13059        0.87185        1.46425
H         -3.89198        1.63200        1.28440
H         -3.27910        0.39985        2.43539
H         -2.12689        1.29123        1.36338
N          2.91962        2.16844        1.29731
H          3.22146        2.86158        1.97503
H          1.90327        2.10362        1.36004
H          3.09054        2.55674        0.37354
N          3.25933       -0.89457        0.12338
C          3.03590       -2.05330       -0.77774
H          1.96071       -2.22075       -0.84845
H          3.43098       -1.81104       -1.76457
H          3.54583       -2.92866       -0.36973
C          4.67905       -0.47419        0.17595
H          5.01669       -0.24802       -0.83621
H          4.73455        0.42024        0.79761
H          5.27824       -1.28475        0.59715
C          2.71092       -1.14050        1.48334
H          2.84269       -0.22458        2.05951
H          1.65037       -1.37144        1.38237
H          3.24970       -1.97623        1.93591
H          2.70967       -0.09906       -0.29736
