40
1sa1msa2eda_259.log	Energy: -1095277.2187512
S          0.37276       -1.92444       -0.07975
O         -0.62399       -2.98323       -0.03578
O          1.77619       -2.34729       -0.23453
O          0.02608       -0.84540       -1.06475
O          0.25840       -1.21089        1.36487
H         -1.56202       -0.67852       -1.29436
H          0.96098       -0.52143        1.41755
S          3.29102        0.74800        0.14377
O          4.43278        1.58259        0.43788
O          2.18805        0.70778        1.12199
O          3.81683       -0.72238       -0.08860
H          3.05333       -1.37674       -0.13375
C          2.59047        1.19622       -1.42682
H          2.15824        2.19225       -1.31767
H          3.39178        1.18638       -2.16534
H          1.80338        0.47645       -1.66310
H         -1.87619        2.14348        1.48031
H         -1.03817        3.65909        1.15552
H         -3.16105        3.95350        0.23159
H         -2.09038        3.65351       -1.15327
H         -3.84202        1.63412        0.10256
H         -4.10554        2.38893       -1.33336
H          0.45901        1.98191        0.60803
H         -0.55910        1.17761       -0.34303
C         -1.43311        2.75814        0.67531
C         -2.54563        3.19416       -0.27112
N         -0.32986        2.11225       -0.01937
N         -3.37703        2.05614       -0.70763
H         -4.40102       -1.49696       -0.85782
H         -2.92919       -2.50748       -0.78167
H         -3.39441       -2.15379        1.45839
H         -2.14196       -0.97783        1.13142
H         -4.99846       -0.40873        1.44849
H         -3.73806        0.22098        2.25915
H         -2.80371       -0.70522       -2.40697
H         -2.84249        0.47287       -1.19816
C         -3.34573       -1.52202       -0.56920
C         -3.18565       -1.22310        0.91643
N         -2.60670       -0.54481       -1.42091
N         -4.03502       -0.10374        1.34433
