33
1sa1msa1ma1dma_200.log	Energy: -1001136.8855060
S         -2.23550        0.65341       -0.41790
O         -3.39103        1.17478       -1.16897
O         -0.93965        1.24638       -0.78696
O         -2.48287        0.66940        1.05202
O         -2.19035       -0.89321       -0.84548
H         -4.14654        0.64507        1.25527
H         -1.33934       -1.28892       -0.53163
S          1.50358       -1.09523       -0.03180
O          2.25290       -1.39199       -1.23779
O          0.18193       -1.72372        0.12455
O          1.34191        0.47162        0.15317
H          0.45064        0.79339       -0.19905
C          2.49010       -1.47188        1.38902
H          2.71080       -2.53883        1.34034
H          3.40001       -0.86381        1.30923
H          1.91329       -1.22928        2.28106
N         -5.10507        0.59237        0.80894
H         -5.79087        1.14412        1.31773
C         -5.50369       -0.82503        0.62747
H         -6.43126       -0.87573        0.05825
H         -4.70191       -1.32320        0.08115
H         -5.63129       -1.29155        1.60362
H         -4.87741        1.02274       -0.11097
N          4.54462        0.80846        0.26152
C          5.32018        0.23373       -0.82810
C          5.24786        1.86945        0.96318
H          3.66464        1.16370       -0.10021
H          6.19837       -0.27738       -0.41754
H          4.70938       -0.50075       -1.35818
H          5.67751        0.98492       -1.55367
H          6.12871        1.45301        1.46443
H          5.59319        2.68174        0.29993
H          4.59657        2.30041        1.72856
