24
1sa1msa2a_27.log	Energy: -927175.4780580
S          1.58209        0.36529        0.25485
O          0.79936        1.07537        1.27782
O          1.02363       -0.97895       -0.08215
O          1.77177        1.18994       -0.97099
O          3.00088        0.09183        0.87967
H          0.55448        2.30772       -0.95383
H          3.45863       -0.64751        0.34182
S         -2.45941       -0.49075       -0.11002
O         -3.76367       -1.05772       -0.36646
O         -2.23725        0.90292       -0.53636
O         -1.39213       -1.42588       -0.78634
H         -0.43264       -1.18620       -0.54381
C         -2.07086       -0.58363        1.62357
H         -2.81599        0.01767        2.14617
H         -2.14013       -1.62858        1.92568
H         -1.06616       -0.18152        1.77874
N         -0.30189        2.80819       -0.58333
H         -1.08978        2.12315       -0.61158
H         -0.52197        3.66073       -1.08857
H         -0.09351        2.98475        0.40076
N          3.90212       -1.91394       -0.60386
H          4.28225       -1.63469       -1.50232
H          2.98903       -2.33383       -0.76409
H          4.51567       -2.61257       -0.19888
