41
1sa1msa1tma1eda_78.log	Energy: -1085217.7531709
S         -0.65404       -1.94212       -0.38762
O          0.37859       -2.66718       -1.15572
O         -1.63979       -2.78086        0.28892
O          0.18730       -1.18664        0.76907
O         -1.28154       -0.83471       -1.16998
H          0.02865       -0.19562        0.73750
H         -2.31033       -0.03417       -0.12555
S          0.56796        2.17371       -0.28173
O          0.78047        3.55018        0.15083
O         -0.30263        1.37809        0.65012
O          1.82889        1.42436       -0.58771
H          2.20833       -0.18325       -0.71377
C         -0.32426        2.21400       -1.83054
H         -1.23322        2.79915       -1.68176
H          0.31125        2.69804       -2.57267
H         -0.56131        1.18562       -2.10909
H          5.05369       -0.34305       -0.12593
H          5.11882       -1.16072        1.43457
H          3.81814       -2.58096        0.05444
H          2.64368       -1.76049        1.11460
H          3.21644       -1.07884       -1.69130
H          1.81356       -1.78398       -1.07533
H          4.58986        1.08786        1.87076
H          3.27519        1.07468        0.88543
C          4.44725       -0.62450        0.75641
C          3.37775       -1.61712        0.32026
N          3.86895        0.49574        1.47665
N          2.61759       -1.13918       -0.86967
N         -3.13678        0.22261        0.47957
C         -2.76864       -0.03722        1.89800
H         -2.47399       -1.08339        1.98889
H         -1.93283        0.61121        2.15854
H         -3.63615        0.17686        2.52689
C         -3.44425        1.65320        0.24921
H         -2.57585        2.23726        0.55500
H         -3.64168        1.80330       -0.81312
H         -4.32482        1.92995        0.83367
C         -4.22734       -0.67896        0.02932
H         -4.42155       -0.49130       -1.02692
H         -3.88624       -1.70722        0.15743
H         -5.12401       -0.48303        0.62153
