26
1sa1msa1dma_84.log	Energy: -940970.1053490
S         -1.54374       -1.31844        0.07243
O         -2.97699       -1.28878        0.01517
O         -0.82545       -0.61616        1.12344
O         -1.03949       -2.83624        0.21517
O         -1.00022       -0.88422       -1.33118
H         -1.61352       -3.41491       -0.30867
H         -0.01056       -0.72970       -1.29306
S          2.37709        0.23135       -0.12430
O          2.58455        1.61576       -0.47677
O          1.58186       -0.61453       -1.03242
O          1.75582        0.10506        1.33292
H          0.79818       -0.14753        1.29001
C          3.94078       -0.56348        0.13153
H          4.48248       -0.50277       -0.81284
H          4.46931       -0.01888        0.91401
H          3.76282       -1.59912        0.41795
N         -2.02031        2.42630        0.61068
C         -0.68539        2.59490        0.06898
C         -3.04358        2.35824       -0.41834
H         -2.05305        1.59455        1.18873
H         -0.60518        3.57214       -0.41922
H          0.05379        2.56885        0.87352
H         -0.40954        1.83466       -0.68530
H         -3.10934        3.32599       -0.92827
H         -2.85389        1.58656       -1.18556
H         -4.01448        2.15450        0.04015
