30
1sa1msa2ma_26.log	Energy: -976496.6509871
S         -0.90780       -1.81152        0.11606
O         -1.21133       -0.42790       -0.25453
O         -0.07341       -1.77264        1.45557
O         -1.98342       -2.74676        0.29048
O          0.08821       -2.40192       -0.94767
H          0.84187       -1.75336       -1.10768
S          2.24749        0.41437       -0.20797
O          1.72438        1.72220       -0.68030
O          2.04374       -0.68992       -1.17769
O          1.74426        0.08009        1.15728
H          0.65291       -1.07800        1.38818
C          4.00924        0.61169       -0.05666
H          4.40617        0.86199       -1.04040
H          4.20284        1.41254        0.65681
H          4.42345       -0.33181        0.29869
N         -2.96576        1.57564       -1.19245
H         -3.34763        2.03198       -2.01479
C         -4.02664        1.27972       -0.22012
H         -4.85163        0.69400       -0.64062
H         -3.59177        0.70618        0.60128
H         -4.43199        2.21326        0.18053
H         -2.53792        0.70008       -1.48914
N         -0.72561        2.52790        0.16679
H         -1.57610        2.21586       -0.40262
H          0.14676        2.10665       -0.23766
C         -0.86308        2.13065        1.58825
H          0.04904        2.38607        2.12660
H         -1.72395        2.63720        2.02632
H         -1.00581        1.05231        1.61516
H         -0.62807        3.53699        0.07547
