39
1sa1msa1dma1tma_121.log	Energy: -1050467.6268186
S          0.04071       -0.50452       -0.60254
O          0.38035       -1.54072        0.36928
O         -0.64590        0.67218        0.02946
O          1.18042       -0.04536       -1.42825
O         -0.97948       -1.09727       -1.67349
H         -1.82409       -1.32273       -1.21223
S         -3.90514       -0.13867        0.36179
O         -5.14804       -0.30012        1.07889
O         -3.30487       -1.30756       -0.29211
O         -2.85359        0.49515        1.35785
H         -1.94126        0.51218        0.92410
C         -4.08659        1.12374       -0.88267
H         -4.79455        0.74915       -1.62288
H         -4.46934        2.02420       -0.40279
H         -3.10927        1.29923       -1.33563
N          3.48149       -1.33956        0.42744
C          4.18692       -1.99014        1.52168
C          4.01678       -1.70256       -0.87796
H          2.49624       -1.59907        0.45871
H          5.21255       -1.60594        1.58461
H          3.68551       -1.77196        2.46937
H          4.24715       -3.08555        1.41189
H          5.02381       -1.28201       -0.99902
H          4.09292       -2.79202       -1.02788
H          3.36769       -1.29268       -1.65553
N          2.51624        1.74739        0.06982
C          3.96879        1.84231       -0.20438
H          4.42622        0.91930        0.15346
H          4.11826        1.94071       -1.28019
H          4.37589        2.71493        0.31158
C          1.75449        2.91075       -0.44926
H          1.95175        3.01087       -1.51676
H          0.69324        2.71240       -0.29379
H          2.06903        3.81221        0.08121
C          2.24470        1.51568        1.51294
H          1.17101        1.37666        1.64188
H          2.77511        0.61000        1.80455
H          2.59497        2.38119        2.08020
H          2.14239        0.91609       -0.45902
