32
1sa1msa1a1eda_158.log	Energy: -1011230.9174893
S          2.19178       -0.78436       -0.32165
O          1.39676       -2.04293       -0.32018
O          1.50379        0.27995       -1.08650
O          2.70806       -0.36886        0.97471
O          3.53108       -1.14888       -1.16298
H          3.26240       -1.55427       -1.99843
S         -1.91826       -1.26345        0.27368
O         -3.13204       -0.71220       -0.31309
O         -1.08956       -0.38895        1.09977
O         -1.06511       -1.86797       -0.89590
H         -0.06534       -1.91890       -0.66417
C         -2.34948       -2.69185        1.24127
H         -2.96783       -2.35012        2.07190
H         -2.90319       -3.38046        0.60349
H         -1.42733       -3.14513        1.60619
N          2.30548        2.44190        2.00069
H          3.05772        3.08467        1.77445
H          2.61785        1.50012        1.74571
H          2.18777        2.45899        3.00885
H         -0.59031        4.04623       -0.17358
H          0.37742        3.20963       -1.41449
H         -2.04460        3.25271       -2.06331
H         -1.48935        1.60268       -1.78685
H         -3.37950        3.06785       -0.18111
H         -3.15089        1.43371       -0.31874
H          0.79205        2.45665        0.99710
H         -0.77282        1.77917        0.86926
C         -0.41269        3.08861       -0.67000
C         -1.70586        2.55411       -1.28879
N          0.04385        2.11427        0.34218
N         -2.68694        2.33293       -0.23383
H          0.46725        1.29110       -0.13371
