42
1sa1msa2tma_14.log	Energy: -1075144.5898245
S         -1.41404        1.26582        1.15449
O         -2.30706        2.38319        1.39636
O         -0.11540        1.55987        2.04944
O         -1.91357       -0.07486        1.52997
O         -0.89847        1.20464       -0.26501
H         -1.40565       -0.42697       -0.71531
H          1.17197        0.77067       -0.61519
S          1.60778       -1.48505        0.68063
O          2.85751       -2.23018        0.52629
O          0.82792       -1.34560       -0.59074
O          1.79893       -0.12714        1.29445
H          0.56693        0.86041        1.86767
C          0.56565       -2.37057        1.82715
H          0.38539       -3.36915        1.42597
H          1.10448       -2.44032        2.77253
H         -0.36310       -1.80816        1.95102
N          1.76573        1.43553       -1.14538
C          1.07419        1.68141       -2.43149
H          0.98533        0.72910       -2.95552
H          0.08597        2.08390       -2.21222
H          1.66357        2.38251       -3.02618
C          1.86632        2.66965       -0.32454
H          0.86187        3.05679       -0.16100
H          2.31161        2.40298        0.63289
H          2.49002        3.39223       -0.85559
C          3.09335        0.79975       -1.34892
H          3.54539        0.62325       -0.37437
H          2.94743       -0.15816       -1.84733
H          3.71094        1.46685       -1.95425
N         -2.03939       -1.06993       -1.25093
C         -1.46179       -1.18709       -2.60866
H         -1.42044       -0.19148       -3.05254
H         -0.45698       -1.59841       -2.51012
H         -2.09480       -1.83754       -3.21668
C         -2.09352       -2.38184       -0.56245
H         -1.09244       -2.80945       -0.57864
H         -2.40872       -2.20545        0.46516
H         -2.80370       -3.02551       -1.08747
C         -3.36806       -0.40703       -1.26462
H         -3.71691       -0.32483       -0.23550
H         -3.25142        0.59301       -1.68187
H         -4.05667       -1.00279       -1.86806
