33
1sa1msa1a1tma_70.log	Energy: -1001138.4082330
S          2.15036       -0.48211        0.50179
O          1.04806       -0.53924        1.45627
O          3.49638       -0.74992        0.94809
O          1.86079       -1.48934       -0.67859
O          2.07509        0.93082       -0.16729
H          0.89338       -1.45626       -0.92590
H          2.98794        1.14712       -0.62986
S         -1.82731       -1.71955       -0.29079
O         -2.27426       -3.07935       -0.48924
O         -0.71510       -1.21418       -1.11885
O         -1.42579       -1.52405        1.23464
H         -0.51546       -1.13788        1.32423
C         -3.18257       -0.59691       -0.46323
H         -3.54725       -0.69876       -1.48646
H         -3.95071       -0.90326        0.24759
H         -2.81187        0.41923       -0.25923
N          4.42793        1.33184       -1.19963
H          4.53157        0.99563       -2.15218
H          4.99748        0.74252       -0.59613
H          4.79105        2.27873       -1.15592
N         -1.85064        2.29816        0.07979
C         -0.94364        2.44025       -1.04830
H         -0.20288        1.63839       -1.02980
H         -1.50553        2.37333       -1.98544
H         -0.40767        3.40825       -1.03346
C         -2.87061        3.33165        0.07320
H         -3.42844        3.29798       -0.86801
H         -3.57422        3.16689        0.89514
H         -2.44263        4.34611        0.18390
C         -1.12609        2.27775        1.34171
H         -1.82183        2.08013        2.16294
H         -0.37314        1.48703        1.32785
H         -0.61350        3.23706        1.54302
