33
1sa1msa1ma1dma_102.log	Energy: -1001151.9895460
S         -1.23976        0.91582        0.12047
O         -1.64672        0.21323        1.33161
O         -0.36510        0.06191       -0.77360
O         -2.51851        1.24003       -0.73611
O         -0.57565        2.22719        0.32257
H         -3.19107        0.43990       -0.68026
H          0.85259        2.24192       -0.35845
S          2.57105       -1.11607        0.08690
O          2.74861       -0.45477        1.37386
O          2.90158       -0.29365       -1.09408
O          1.14963       -1.72188       -0.06791
H          0.43095       -0.96453       -0.31654
C          3.55804       -2.58964        0.03736
H          4.59698       -2.28387        0.16242
H          3.24419       -3.23319        0.85897
H          3.40651       -3.07637       -0.92534
N          1.85348        2.28449       -0.72351
H          2.13166        1.33058       -1.02585
C          2.75927        2.75004        0.35394
H          3.77093        2.85594       -0.03777
H          2.39514        3.70176        0.73993
H          2.74897        1.99622        1.14111
H          1.86892        2.90084       -1.53267
N         -4.16868       -0.75727       -0.49604
C         -4.84336       -0.55905        0.79147
C         -3.39050       -2.00060       -0.53934
H         -4.85670       -0.76407       -1.24355
H         -4.07851       -0.44933        1.56405
H         -5.42883        0.36250        0.75483
H         -5.50445       -1.39786        1.04929
H         -2.61917       -1.95182        0.23272
H         -4.01492       -2.88754       -0.36485
H         -2.89884       -2.08864       -1.51058
