36
1sa1msa1ma1tma_78.log	Energy: -1025809.1486542
S          0.54635       -1.55321       -0.45811
O          0.49228       -1.23793        0.96862
O         -0.72967       -1.97629       -1.06761
O          1.25227       -0.52518       -1.25988
O          1.48724       -2.87738       -0.52276
H          1.37937       -3.28039       -1.39495
S         -2.99853        0.32179        0.24341
O         -4.30632        0.93880        0.29814
O         -1.82300        1.16236        0.00475
O         -3.06357       -0.80096       -0.87154
H         -2.16143       -1.21203       -1.00836
C         -2.70388       -0.60114        1.73674
H         -2.71437        0.11557        2.55900
H         -3.50920       -1.32682        1.84963
H         -1.72703       -1.08404        1.65829
N          3.28770       -0.10629        1.64321
H          3.66680       -0.14240        2.58390
C          4.16755       -0.82545        0.71765
H          4.33907       -1.87713        0.98231
H          3.71987       -0.80612       -0.27983
H          5.13784       -0.32076        0.66518
H          2.37942       -0.56861        1.67081
N          1.40195        2.02264       -0.40183
C          2.84434        2.31733       -0.58762
H          3.39317        1.76334        0.17711
H          3.14225        1.98942       -1.58430
H          3.00284        3.39308       -0.48174
C          0.55452        2.69549       -1.41932
H          0.88204        2.37365       -2.40842
H         -0.48178        2.40005       -1.25566
H          0.67061        3.77660       -1.31512
C          0.96016        2.32389        0.98513
H         -0.07683        2.00624        1.08821
H          1.60769        1.76835        1.66345
H          1.05560        3.39945        1.15327
H          1.29139        0.99292       -0.57056
