38
1sa1msa1dma1eda_338.log	Energy: -1060539.6867775
S         -0.65373       -1.49230       -0.15914
O         -0.05816       -0.68398        0.94737
O         -1.00490       -0.66554       -1.31601
O          0.45223       -2.55885       -0.58612
O         -1.78458       -2.32394        0.31181
H          1.28185       -2.08056       -0.82228
H         -3.10425       -1.57270       -0.30463
S          3.12740       -0.03311        0.06435
O          2.98717        1.35795       -0.32501
O          2.71583       -1.05630       -0.90600
O          2.41444       -0.31508        1.44358
H          1.42051       -0.48374        1.29313
C          4.80978       -0.34832        0.53377
H          5.41742       -0.18374       -0.35650
H          5.08208        0.35424        1.32101
H          4.88900       -1.37949        0.87573
N         -0.42462        2.26546       -0.23118
C          0.18333        3.19533        0.71096
C         -0.04566        2.53422       -1.61414
H         -0.13964        1.31856        0.00443
H         -0.22248        4.20055        0.54683
H         -0.06285        2.89435        1.73370
H          1.27856        3.24387        0.61459
H         -0.47453        3.49278       -1.93045
H          1.04464        2.57675       -1.75329
H         -0.44814        1.74289       -2.25051
H         -5.41271        0.03600        0.61690
H         -4.38104       -1.08701        1.54706
H         -3.83546        1.38750        1.95484
H         -2.46409        0.44957        1.35708
H         -3.93787        2.44831       -0.12792
H         -2.32709        2.00045       -0.20930
H         -4.63014       -1.40139       -1.03226
H         -3.54147       -0.10475       -1.04682
C         -4.39108       -0.32098        0.77038
C         -3.44645        0.84905        1.08253
N         -3.90955       -0.91677       -0.50489
N         -3.30107        1.66049       -0.11716
