30
1sa1msa2ma_21.log	Energy: -976503.5920764
S         -2.27603       -0.00022       -0.30955
O         -2.08846        1.23425       -1.10204
O         -2.08898       -1.23565       -1.10055
O         -1.56179        0.00039        0.96849
O         -3.84568        0.00043        0.12857
H         -4.38175        0.00148       -0.67574
S          2.44772        0.00011       -0.12230
O          2.26777       -1.24359        0.68386
O          2.26667        1.24138        0.68721
O          1.62455        0.00147       -1.34509
C          4.16527        0.00135       -0.60708
H          4.77472        0.00109        0.29687
H          4.35347       -0.89481       -1.19861
H          4.35252        0.89846       -1.19747
N          0.04422       -2.58694       -0.01493
H          0.89149       -1.99696        0.20785
H         -0.65184       -2.01580       -0.54424
C         -0.57297       -3.07790        1.23861
H         -1.43616       -3.69925        0.99982
H          0.16388       -3.64550        1.80672
H         -0.89716       -2.20367        1.80199
H          0.34835       -3.34916       -0.61617
N          0.04399        2.58582       -0.01449
H          0.89056        1.99554        0.20960
H          0.34928        3.34696       -0.61651
C         -0.57392        3.07890        1.23784
H         -1.43606        3.70110        0.99746
H         -0.89977        2.20568        1.80183
H          0.16300        3.64623        1.80614
H         -0.65200        2.01454       -0.54377
