36
1sa1msa1ma1tma_66.log	Energy: -1025810.6814904
S         -0.75589       -1.62413       -0.56220
O         -1.48795       -0.56830       -1.31604
O         -0.16818       -0.99280        0.67122
O         -1.50696       -2.83610       -0.33171
O          0.50135       -2.05225       -1.46084
H          1.15485       -1.32021       -1.49171
S          2.76436        0.24714        0.30360
O          2.36140        1.55633        0.80470
O          2.40045       -0.04671       -1.09115
O          2.25608       -0.90226        1.23835
H          1.24131       -1.04588        1.06941
C          4.51535        0.04921        0.49760
H          4.99079        0.80928       -0.12284
H          4.75918        0.19844        1.54909
H          4.78669       -0.95222        0.16527
N         -3.81450       -0.07272        0.77157
H         -4.82370       -0.13296        0.67805
C         -3.38741       -0.78527        1.98210
H         -3.68244       -1.84194        2.00590
H         -2.29699       -0.75048        2.05241
H         -3.80413       -0.28614        2.86240
H         -3.42328       -0.53602       -0.04664
N         -1.32862        1.95118       -0.43604
C         -0.19962        2.49163       -1.23219
H          0.72288        2.00875       -0.91373
H         -0.38558        2.28209       -2.28596
H         -0.12942        3.56900       -1.06580
C         -2.62693        2.54410       -0.83922
H         -2.78293        2.35261       -1.90168
H         -3.40711        2.05659       -0.25110
H         -2.60021        3.62029       -0.65182
C         -1.09792        2.08630        1.02511
H         -1.93281        1.60838        1.53769
H         -0.16013        1.59289        1.27610
H         -1.04478        3.14910        1.27366
H         -1.38615        0.92184       -0.66638
