36
1sa1msa2dma_45.log	Energy: -1025817.3431685
S          1.12765        0.81010       -0.45468
O          2.33059        1.03317       -1.24811
O          0.80521        1.91590        0.48935
O         -0.09643        0.48820       -1.25589
O          1.36315       -0.49308        0.42416
H          2.39935       -0.68088        0.55296
S         -2.33710       -1.74736        0.02854
O         -3.39640       -2.70437       -0.20241
O         -2.71251       -0.40615        0.51086
O         -1.50589       -1.61141       -1.29642
H         -0.88014       -0.80110       -1.28188
C         -1.16660       -2.41270        1.18955
H         -0.86332       -3.39458        0.82569
H         -0.31274       -1.73309        1.23954
H         -1.67509       -2.49689        2.15065
N         -1.85892        2.20533        0.29025
C         -2.49605        2.82207        1.46878
C         -2.17902        2.85860       -0.99635
H         -0.81002        2.17968        0.41212
H         -3.58075        2.78411        1.35691
H         -2.20073        2.26369        2.35696
H         -2.16503        3.85788        1.55843
H         -3.25500        2.80568       -1.17074
H         -1.85556        3.90000       -0.95796
H         -1.63953        2.32822       -1.78070
H         -2.13455        1.20572        0.24422
N          3.88192       -0.94872        0.69253
C          4.53918        0.30360        1.08802
C          4.36054       -1.45438       -0.60032
H          4.04060       -1.65134        1.40944
H          4.30916        1.06237        0.33700
H          4.13665        0.63644        2.04745
H          5.62809        0.18964        1.17019
H          4.08310       -0.73188       -1.37086
H          5.44863       -1.60152       -0.60960
H          3.86709       -2.40342       -0.82146
