33
1sa1msa1a1tma_11.log	Energy: -1001161.6800680
S          2.92722       -0.35326        0.07518
O          3.11737        0.91924        0.77066
O          2.91838       -1.54784        0.93254
O          1.77812       -0.34398       -0.87442
O          4.19028       -0.51673       -0.94673
H          5.00026       -0.41225       -0.42978
S         -2.58431       -0.87151       -0.11750
O         -2.55651        0.46906       -0.77608
O         -1.75903       -0.86277        1.12912
O         -2.23860       -1.98784       -1.01495
C         -4.27588       -1.11525        0.39167
H         -4.90153       -1.09271       -0.50093
H         -4.34543       -2.08529        0.88402
H         -4.55204       -0.31474        1.07800
N          0.31775       -2.38936        0.10674
H         -0.33225       -1.89928        0.75353
H         -0.26147       -2.98064       -0.48847
H          0.79466       -1.64582       -0.46196
H          1.05936       -2.88069        0.60486
N         -0.68748        2.22789       -0.02873
C         -1.66009        3.33592        0.11613
H         -2.17755        3.47552       -0.83306
H         -2.38431        3.06697        0.88501
H         -1.12919        4.24791        0.39749
C         -0.04455        1.89339        1.26975
H         -0.80398        1.48471        1.93605
H          0.73910        1.15887        1.09882
H          0.40402        2.79883        1.68376
C          0.31553        2.49974       -1.09182
H          0.94251        1.61429       -1.20985
H         -0.21421        2.71737       -2.02008
H          0.92579        3.35408       -0.79119
H         -1.27253        1.40345       -0.33058
