36
1sa1msa1ma1tma_18.log	Energy: -1025822.2296350
S         -2.64067       -0.64172       -0.06068
O         -2.25201       -1.44230        1.11677
O         -3.05067        0.74168        0.29193
O         -1.66995       -0.71005       -1.15579
O         -3.97843       -1.32744       -0.67473
H         -4.72462       -1.08920       -0.10820
S          2.79912        0.06379       -0.03762
O          2.80211        1.53030        0.10827
O          1.98341       -0.43295       -1.17741
O          2.41678       -0.65329        1.22476
C          4.48905       -0.40714       -0.37274
H          5.10202       -0.09869        0.47454
H          4.53484       -1.48851       -0.50508
H          4.80682        0.10362       -1.28200
N          0.35897       -2.19567        0.32569
H          0.28188       -1.68967       -0.56554
H          1.10831       -1.67517        0.84356
C          0.73561       -3.60507        0.10854
H          0.86589       -4.09445        1.07331
H         -0.04823       -4.10672       -0.45858
H          1.67228       -3.63302       -0.44766
H         -0.55737       -2.09154        0.79521
N         -0.84429        2.32112        0.05405
C         -0.08428        2.13981       -1.21481
H          0.06512        1.07486       -1.38702
H         -0.66816        2.57237       -2.02793
H          0.88937        2.62072       -1.11289
C         -1.18203        3.74132        0.29904
H         -1.73198        4.13038       -0.55804
H         -1.80074        3.80947        1.19432
H         -0.25734        4.30475        0.43662
C         -0.13315        1.72661        1.21894
H         -0.75117        1.86087        2.10668
H          0.00647        0.66383        1.03235
H          0.84868        2.18854        1.32238
H         -1.74123        1.78550       -0.01561
