42
1sa1msa2tma_44.log	Energy: -1075128.7445766
S         -0.03033       -1.85113        0.26657
O          0.04708       -0.67962       -0.66497
O         -1.13082       -2.75375       -0.03554
O          1.30621       -2.47549        0.39878
O         -0.27363       -1.22285        1.72516
H         -1.11697       -0.71579        1.68777
S         -3.21947        0.37132       -0.13457
O         -4.17497        1.44279       -0.30551
O         -2.50931        0.26378        1.14814
O         -2.15152        0.49367       -1.29582
H         -1.29599       -0.00339       -1.06784
C         -3.99989       -1.19277       -0.45614
H         -4.75444       -1.33658        0.31827
H         -4.46275       -1.13871       -1.44138
H         -3.23402       -1.97028       -0.40924
N          3.25463       -0.84389       -0.32289
C          2.98090       -0.12555       -1.59190
H          2.77432       -0.85887       -2.37167
H          2.10529        0.50314       -1.43849
H          3.85384        0.47727       -1.85504
C          3.44275        0.10022        0.80805
H          2.62873        0.83080        0.77352
H          3.42482       -0.46596        1.73993
H          4.40305        0.60889        0.68931
C          4.37471       -1.80380       -0.44666
H          4.49563       -2.32468        0.50351
H          4.13418       -2.52756       -1.22580
H          5.29074       -1.26544       -0.70047
H          2.40433       -1.43438       -0.08468
N          1.35173        2.58470        0.18020
C          0.34576        2.35375        1.20940
H         -0.30886        1.53466        0.90973
H          0.83298        2.07481        2.14953
H         -0.27671        3.24745        1.39418
C          2.25819        3.65332        0.56191
H          2.75099        3.40417        1.50796
H          3.02989        3.78061       -0.20486
H          1.74225        4.62255        0.69383
C          0.72325        2.86404       -1.10230
H          1.49058        2.97498       -1.87658
H          0.06151        2.03970       -1.37812
H          0.12069        3.79037       -1.08249
