41
1sa1msa1tma1eda_215.log	Energy: -1085196.5023933
S         -0.16799       -0.10185       -1.30085
O         -1.32777       -0.82841       -1.86118
O          0.90009        0.19885       -2.23651
O         -0.72515        1.36224       -0.85888
O          0.29554       -0.71708       -0.02149
H         -1.53729        1.22748       -0.31518
H          0.85368        0.34037        1.02920
S         -3.88049       -0.26538        0.42793
O         -5.06607        0.35018       -0.13081
O         -2.74725        0.61485        0.76801
O         -3.36572       -1.44470       -0.47150
H         -2.53782       -1.20156       -1.02486
C         -4.32663       -1.16795        1.89172
H         -4.73100       -0.44732        2.60317
H         -5.08425       -1.90102        1.61541
H         -3.43477       -1.65400        2.28525
H          2.94766        2.20950        2.07079
H          3.19512        0.68885        1.13059
H          3.34019        2.84873       -0.27152
H          2.13700        1.69466       -0.84170
H          1.63187        4.30522        0.18981
H          0.59866        3.25663       -0.56214
H          1.16333        0.78942        2.63665
H          0.58276        1.93047        1.54606
C          2.56193        1.57429        1.26833
C          2.38417        2.37723       -0.02293
N          1.20322        1.11443        1.67445
N          1.30408        3.34913        0.16032
N          3.99656       -1.24276        0.44762
C          3.97503       -0.92105       -0.97383
H          2.94910       -0.74142       -1.30566
H          4.55964       -0.01225       -1.15521
H          4.40334       -1.73158       -1.59150
C          5.35421       -1.46115        0.91556
H          5.96051       -0.56911        0.72771
H          5.35183       -1.65435        1.99304
H          5.84130       -2.31852        0.41374
C          3.14793       -2.39158        0.73332
H          3.13504       -2.58109        1.81210
H          2.12764       -2.18611        0.39970
H          3.50594       -3.30920        0.23036
