36
1sa1msa1ma1tma_22.log	Energy: -1025823.3246265
S         -1.09688        1.44747       -0.71133
O         -0.56261        0.92690        0.58705
O         -0.59909        0.41064       -1.82153
O         -2.57869        1.31785       -0.73872
O         -0.57792        2.76662       -1.05048
H         -2.84677       -0.06559        0.01993
H          1.71833        2.95686        0.21828
S          2.29839       -1.15132       -0.18106
O          2.15046       -1.09366        1.28335
O          2.98011        0.05702       -0.73825
O          1.02136       -1.44156       -0.90052
H          0.09141       -0.22096       -1.46137
C          3.36882       -2.52622       -0.56457
H          4.32759       -2.35555       -0.07461
H          2.90048       -3.43463       -0.18505
H          3.49037       -2.57604       -1.64654
N          1.89179        2.06619        0.68288
H          0.95066        1.62006        0.81399
C          2.62602        2.18189        1.95833
H          2.75587        1.17213        2.34930
H          3.59947        2.63982        1.78191
H          2.05022        2.78753        2.65861
H          2.39734        1.41404        0.02734
N         -3.01729       -0.99139        0.52227
C         -2.82854       -0.73912        1.97203
H         -1.82002       -0.35077        2.11188
H         -3.55593        0.00592        2.29633
H         -2.97343       -1.67379        2.51903
C         -4.40381       -1.39310        0.19813
H         -5.08763       -0.61226        0.53250
H         -4.49248       -1.51246       -0.88195
H         -4.63599       -2.33579        0.69908
C         -2.01933       -1.96908        0.01054
H         -2.12530       -2.04275       -1.07185
H         -1.01349       -1.61560        0.24245
H         -2.20433       -2.93888        0.47912
