33
1sa1msa1a1tma_72.log	Energy: -1001137.8901926
S          2.28615       -0.22401        0.49629
O          1.14094       -0.26943        1.39999
O          3.61428       -0.44817        1.01589
O          2.07032       -1.28228       -0.65454
O          2.21998        1.16014       -0.22850
H          1.10792       -1.31806       -0.92048
H          3.15685        1.38681       -0.63081
S         -1.55201       -1.84851       -0.28623
O         -1.70841       -3.28617       -0.28650
O         -0.51546       -1.26081       -1.15651
O         -1.29122       -1.33228        1.19657
H         -0.37666       -0.95397        1.28753
C         -3.09057       -1.05854       -0.65089
H         -3.34942       -1.33505       -1.67395
H         -3.83075       -1.44676        0.04965
H         -2.95079        0.02685       -0.53614
N          4.63364        1.59811       -1.10000
H          4.81256        1.27572       -2.04602
H          5.16517        1.00969       -0.46186
H          4.97813        2.54938       -1.01818
N         -2.42111        2.03911       -0.00018
C         -0.99354        2.15575       -0.25727
H         -0.44588        1.41615        0.32921
H         -0.78818        1.96775       -1.31475
H         -0.60025        3.15548        0.00496
C         -3.17906        3.01404       -0.76373
H         -2.97976        2.88261       -1.83164
H         -4.25059        2.86846       -0.59500
H         -2.92533        4.05628       -0.49176
C         -2.70900        2.13268        1.42172
H         -3.78182        1.99891        1.59244
H         -2.17645        1.34107        1.95629
H         -2.40919        3.10694        1.85067
