30
1sa1msa1a1dma_21.log	Energy: -976501.9208367
S         -2.32933       -0.16573       -0.09785
O         -1.51515        1.04844       -0.03562
O         -1.94356       -1.08005        1.13070
O         -3.75799       -0.05367       -0.13191
O         -1.87468       -1.00491       -1.35401
H         -0.87795       -1.11875       -1.35936
S          1.53563       -1.28694       -0.01360
O          2.51421       -0.17675        0.06143
O          0.73256       -1.24741       -1.26898
O          0.66795       -1.36571        1.19760
H         -0.95026       -1.20831        1.18251
C          2.47743       -2.79452       -0.05460
H          3.06969       -2.84489        0.85898
H          1.77558       -3.62676       -0.10881
H          3.11946       -2.76819       -0.93496
N          0.28718        1.49227        2.42282
H         -0.72864        1.48693        2.39272
H          0.56055        1.77154        3.35924
H          0.58448        0.52589        2.29383
N          1.06049        2.12397       -0.39918
C          0.81741        2.06296       -1.85807
C          1.53525        3.42982        0.10064
H          0.19735        1.85684        0.09929
H          1.72958        2.35491       -2.38048
H          0.55570        1.03673       -2.11412
H         -0.00084        2.73657       -2.11318
H          2.50396        3.65235       -0.34872
H          0.81228        4.20020       -0.17140
H          1.61344        3.35551        1.18444
H          1.73390        1.36946       -0.14385
