36
1sa1msa1ma1tma_65.log	Energy: -1025811.8335413
S          1.38608       -0.82512        0.16673
O          2.04479       -2.06585       -0.22708
O          0.19624       -0.98044        1.05259
O          2.40261       -0.01105        1.10619
O          1.07223        0.08250       -0.96843
H          3.35680       -0.29441        0.86240
H          0.06052        1.33313       -0.44794
S         -2.99242       -0.68267       -0.07846
O         -2.37769        0.22120       -1.05288
O         -3.51042       -0.06296        1.13657
O         -2.02387       -1.86905        0.25578
H         -1.09767       -1.53464        0.56313
C         -4.29269       -1.59721       -0.87093
H         -5.06238       -0.87653       -1.14794
H         -3.88101       -2.08723       -1.75251
H         -4.68237       -2.32469       -0.15932
N          4.72459       -0.92773        0.23269
H          5.57960       -0.93554        0.77833
C          4.94209       -0.35499       -1.10148
H          5.69851       -0.88996       -1.68746
H          3.99538       -0.38067       -1.64606
H          5.25006        0.68871       -0.99916
H          4.39087       -1.88576        0.14878
N         -0.15801        2.28010       -0.03700
C          1.16649        2.93748        0.09926
H          1.79621        2.31016        0.73141
H          1.61993        3.01791       -0.88873
H          1.02927        3.92811        0.53880
C         -1.04669        3.00896       -0.97319
H         -0.55073        3.07978       -1.94178
H         -1.97148        2.44323       -1.07596
H         -1.23649        4.00811       -0.57374
C         -0.79525        2.08105        1.29242
H         -1.76150        1.59611        1.15900
H         -0.15146        1.43790        1.89211
H         -0.92157        3.05784        1.76594
