35
1sa1msa1ma1eda_204.log	Energy: -1035882.7922273
S         -0.36389        1.92488        0.51204
O         -1.50790        2.50498        1.20173
O          0.53576        1.08896        1.38577
O         -0.90437        0.90957       -0.57647
O          0.49196        2.89583       -0.22032
H         -1.95377        0.83963       -0.51566
H          1.93784        2.25068       -0.30194
S          1.49419       -1.88456        0.13484
O          2.66118       -0.99511       -0.04511
O          0.71230       -2.17386       -1.05546
O          0.61855       -1.36790        1.31018
H          0.52103       -0.31300        1.33412
C          2.08144       -3.41286        0.82295
H          2.65194       -3.19299        1.72453
H          1.21336       -4.03193        1.04964
H          2.70727       -3.88649        0.06627
N          2.87183        1.73835       -0.36369
H          3.47535        2.10239        0.37023
C          3.46921        1.88036       -1.70798
H          4.40444        1.32308       -1.75940
H          2.76376        1.47657       -2.43329
H          3.64384        2.93536       -1.91830
H          2.69067        0.73547       -0.15189
H         -3.78298       -1.27864       -1.94553
H         -4.40030       -2.41194       -0.74101
H         -5.23538       -0.31561       -0.06517
H         -3.87713       -0.65044        1.02875
H         -3.86955        1.20215       -1.24538
H         -3.57978        1.54284        0.33137
H         -2.08491       -2.85175       -1.06024
H         -1.65119       -1.34807       -0.64316
C         -3.69414       -1.58713       -0.88694
C         -4.14497       -0.42659       -0.00722
N         -2.36997       -2.05274       -0.50627
N         -3.47166        0.82940       -0.38741
