32
1sa1msa1a1eda_63.log	Energy: -1011237.8222960
S          2.82423       -0.02422       -0.15456
O          2.25834        0.21725        1.19705
O          2.97437       -1.47635       -0.41503
O          2.15801        0.74484       -1.20197
O          4.33499        0.56290       -0.14579
H          4.88624       -0.02389        0.38896
S         -2.13863       -1.21524       -0.18715
O         -1.63511       -2.50141       -0.73184
O         -2.24356       -0.12226       -1.17063
O         -1.33634       -0.79552        1.01567
C         -3.78641       -1.53394        0.41437
H         -4.39842       -1.84386       -0.43318
H         -3.73665       -2.32453        1.16295
H         -4.17024       -0.61193        0.85241
N          0.74417       -2.66530        0.59242
H          0.93899       -3.50070        1.13604
H          1.62381       -2.29776        0.14798
H         -0.01217       -2.83685       -0.10605
H          0.34333       -1.92833        1.18987
H         -0.68249        3.14351        1.64657
H          0.46881        3.59611        0.36075
H         -1.78656        4.42638       -0.14293
H         -1.27692        3.24960       -1.35420
H         -3.61320        3.08535       -0.20659
H         -2.77579        1.69638       -0.45487
H          0.80276        1.29863        0.97965
H         -0.77738        0.89670        0.70473
C         -0.41322        2.99640        0.59897
C         -1.58488        3.36286       -0.30251
N         -0.03598        1.57289        0.43440
N         -2.76797        2.58688        0.04224
H          0.23606        1.35775       -0.53291
