32
1sa1msa1a1eda_15.log	Energy: -1011241.0774324
S         -2.75140       -0.10059       -0.09117
O         -2.43576        0.92782       -1.10547
O         -2.87025       -1.46005       -0.66266
O         -1.90184       -0.04141        1.10239
O         -4.22792        0.28025        0.47191
H         -4.84258        0.28419       -0.27435
S          2.19193       -1.21038       -0.14712
O          2.18930       -0.08589       -1.12268
O          1.58256       -2.45674       -0.69686
O          1.59849       -0.83671        1.15707
C          3.91066       -1.59352        0.13478
H          4.35859       -1.87589       -0.81793
H          4.39464       -0.70480        0.54034
H          3.96306       -2.41740        0.84655
N         -0.75162       -2.64451        0.64529
H         -1.58829       -2.44509        0.05688
H         -0.88455       -3.47907        1.20788
H          0.12336       -2.71068        0.06002
H         -0.63770       -1.81997        1.24805
H         -0.47478        2.74460        0.91986
H          0.35322        1.19536        1.19713
H          1.84897        3.11096        1.81912
H          2.50017        2.16706        0.47309
H          1.23541        4.80033        0.25369
H          2.66040        4.29087       -0.36759
H         -0.78482        1.45896       -1.00863
H          0.42218        2.59964       -1.36492
C          0.37113        2.12032        0.62106
C          1.69777        2.85171        0.76373
N          0.19017        1.76863       -0.81188
N          1.71599        4.00100       -0.14538
H          0.86848        1.01130       -1.05967
