30
1sa1msa1a1dma_81.log	Energy: -976493.8558465
S         -1.97491       -1.03806       -0.05928
O         -2.57637        0.23936        0.38184
O         -1.75187       -1.12141       -1.49963
O         -0.79793       -1.40735        0.77017
O         -3.03335       -2.19599        0.34843
H         -3.83188       -2.07310       -0.18261
S          2.35577       -0.40425       -0.04523
O          2.77670       -0.15979        1.32640
O          1.64683        0.69172       -0.72113
O          1.53506       -1.73383       -0.17004
H          0.57417       -1.63617        0.17504
C          3.76409       -0.85117       -1.02768
H          4.44489        0.00030       -1.01182
H          4.22952       -1.72592       -0.57429
H          3.42501       -1.06367       -2.04089
N          0.08757        1.11842        2.38617
H          1.08033        0.90692        2.46041
H         -0.37103        0.23779        2.15471
H         -0.23580        1.38372        3.31102
N         -0.71293        2.14817       -0.33618
C         -0.94943        2.13898       -1.79814
C         -0.67258        3.48933        0.27924
H         -1.44428        1.56036        0.11715
H         -0.12644        2.65508       -2.29393
H         -1.00274        1.10133       -2.12958
H         -1.89519        2.64154       -2.00552
H          0.11596        4.07593       -0.19499
H         -1.63753        3.97751        0.13454
H         -0.46084        3.35040        1.33872
H          0.17462        1.65432       -0.14465
