40
1sa1msa2eda_18.log	Energy: -1095297.3662730
S         -2.89899       -0.07294       -0.33469
O         -2.77608        1.18018       -1.11143
O         -2.87152       -1.28754       -1.17090
O         -2.00059       -0.12732        0.82575
O         -4.37890       -0.02698        0.34229
H         -5.03241       -0.02128       -0.37000
S          2.34543       -0.06861       -0.74366
O          1.75604       -1.27913       -1.38029
O          2.17774       -0.06154        0.72819
O          1.88564        1.19692       -1.37737
C          4.09581       -0.15531       -1.07691
H          4.48396       -1.07032       -0.62896
H          4.23689       -0.16468       -2.15765
H          4.56961        0.72036       -0.63299
H         -1.08488        2.66105        1.51077
H          0.03353        1.30442        1.28977
H          1.17373        3.20878        2.45870
H          1.91178        2.83722        0.89775
H          0.18361        5.13379        1.46919
H          1.63068        5.10008        0.70655
H         -1.28667        1.98884       -0.73169
H         -0.34069        3.40068       -0.71255
C         -0.16097        2.34206        1.02242
C          1.01452        3.24260        1.37365
N         -0.37737        2.41170       -0.44592
N          0.76862        4.58765        0.84594
H          0.41061        1.91826       -0.92557
H         -0.86711       -4.05238        0.93139
H          0.08838       -4.29226       -0.55622
H          1.44133       -4.49451        1.59190
H          2.05747       -3.28681        0.45675
H          1.39433       -2.79016        3.06651
H          1.52839       -1.63075        1.89614
H         -1.34342       -2.27785       -0.68366
H         -0.63254       -1.69632        0.66623
C         -0.05524       -3.65415        0.31879
C          1.23026       -3.52142        1.13840
N         -0.46274       -2.30952       -0.14454
N          1.05894       -2.49547        2.16022
H          0.30332       -1.87105       -0.70683
