39
1sa1msa1dma1tma_21.log	Energy: -1050487.7562180
S          0.69537       -1.59445       -0.50259
O          0.67383       -0.48239       -1.66131
O         -0.26476       -2.64938       -0.88680
O          2.12118       -1.99505       -0.49414
O          0.29010       -0.92102        0.74622
H          2.81166       -0.54005        0.02333
H         -2.18181       -0.48962        0.65538
S         -1.39717        1.85314       -0.02761
O         -0.03886        2.30649        0.31501
O         -2.13850        1.19115        1.08098
O         -1.44749        1.00725       -1.26586
H         -0.14546        0.08568       -1.56700
C         -2.33626        3.31933       -0.42871
H         -2.34252        3.96559        0.44961
H         -1.84891        3.81580       -1.26810
H         -3.35065        3.02048       -0.69336
N         -2.48751       -1.46579        0.43031
C         -3.72334       -1.38889       -0.37077
C         -2.60282       -2.20908        1.70008
H         -1.72904       -1.90376       -0.13099
H         -4.50179       -0.90436        0.22054
H         -3.50893       -0.79039       -1.25648
H         -4.03699       -2.39438       -0.65652
H         -3.34434       -1.72063        2.33403
H         -2.89825       -3.23925        1.49467
H         -1.62513       -2.18762        2.18095
N          3.24282        0.36824        0.34680
C          2.63347        0.74806        1.65081
H          1.57252        0.94137        1.49148
H          2.75709       -0.08090        2.34784
H          3.14260        1.64176        2.02014
C          4.69056        0.08157        0.47229
H          4.82878       -0.72059        1.19793
H          5.07387       -0.23622       -0.49795
H          5.21038        0.98241        0.80542
C          2.96924        1.40132       -0.68935
H          3.26650        1.00722       -1.66103
H          1.90128        1.62197       -0.68331
H          3.54140        2.29904       -0.44196
