23
1sa1msa1ma_42.log	Energy: -916326.4863515
S         -2.31463       -0.48513        0.11040
O         -3.51316       -1.02541        0.72548
O         -2.53542        0.75261       -0.69024
O         -1.11274       -0.35236        0.96070
O         -1.81075       -1.61635       -0.97442
H         -2.59775       -1.99376       -1.38868
S          2.25990       -0.33733        0.00077
O          1.75445        0.29150       -1.21435
O          2.24112        0.45212        1.22444
O          3.79555       -0.78232       -0.26681
H          4.37465       -0.19329        0.23887
C          1.50724       -1.91964        0.21985
H          0.45170       -1.71922        0.43013
H          1.62722       -2.47898       -0.70771
H          1.99570       -2.41256        1.05965
N         -0.28025        2.04042       -0.13721
H         -1.21242        1.70468       -0.51435
H         -0.20095        1.50642        0.73786
C         -0.18961        3.49931        0.05524
H          0.77504        3.74932        0.49663
H         -0.29638        3.99454       -0.90943
H         -0.99320        3.81854        0.71813
H          0.45572        1.66439       -0.74827
