27
1sa1msa1a1ma_156.log	Energy: -951823.5844762
S         -1.99476       -0.38716       -0.30741
O         -1.05598        0.40712       -1.13310
O         -1.90233       -1.83796       -0.58555
O         -1.95924       -0.06946        1.12443
O         -3.46757        0.08838       -0.76931
H         -3.52761        0.01051       -1.73165
S          2.35933       -0.36215       -0.21380
O          3.55440       -1.07423       -0.60890
O          1.59776       -0.88038        0.93984
O          1.41469       -0.30711       -1.47464
H          0.46602       -0.02737       -1.27745
C          2.72203        1.33529        0.13507
H          3.45010        1.33920        0.94776
H          3.15282        1.77140       -0.76660
H          1.78859        1.83212        0.44439
N         -0.48442       -2.41622        1.63528
H          0.42512       -1.96540        1.37633
H         -0.35471       -3.27668        2.15810
H         -1.02504       -1.71864        2.15669
H         -1.02259       -2.54831        0.74864
N         -0.10662        2.57172        1.17182
H         -0.71097        1.75693        1.25302
C         -0.62889        3.48545        0.15558
H         -1.63327        3.87746        0.37045
H          0.05222        4.33496        0.04261
H         -0.67366        2.95742       -0.79983
H         -0.09566        3.02165        2.08122
