30
1sa1msa1a1dma_70.log	Energy: -976495.6743564
S         -0.62584       -0.76700        0.02931
O         -1.05193       -0.19914       -1.25669
O          0.12128        0.23181        0.85703
O         -1.72831       -1.39129        0.78841
O          0.38188       -1.97058       -0.24002
H          1.22063       -1.60920       -0.61810
S          3.32730        0.26396       -0.14629
O          4.55526        0.87566       -0.59788
O          2.70347       -0.77168       -0.97969
O          2.27826        1.42000        0.10814
H          1.38252        1.01054        0.33778
C          3.55289       -0.43261        1.47746
H          4.25884       -1.25813        1.38016
H          3.95228        0.34360        2.12996
H          2.58458       -0.78843        1.83419
N         -2.02939        2.35455       -0.04032
H         -2.18064        3.35570        0.02357
H         -1.59168        2.14874       -0.93655
H         -1.32952        2.09303        0.65373
N         -3.82121        0.19795        0.08829
C         -4.26171       -0.16003       -1.27653
C         -4.90514        0.32768        1.07818
H         -3.11874       -0.51262        0.41034
H         -4.92294        0.61926       -1.66034
H         -3.36921       -0.24992       -1.89682
H         -4.79047       -1.11418       -1.24736
H         -5.60375        1.10233        0.75678
H         -5.42976       -0.62437        1.17308
H         -4.47056        0.59947        2.04051
H         -3.25620        1.09709        0.04598
