24
1sa1msa2a_72.log	Energy: -927166.7992130
S         -2.30268       -0.40886       -0.04310
O         -2.74168        0.32611        1.16955
O         -2.79979        0.17630       -1.29272
O         -0.85922       -0.68920       -0.01785
O         -2.97166       -1.89202        0.06228
H         -3.90738       -1.80693       -0.16395
S          2.43203       -0.21290        0.00031
O          2.17793        0.54966       -1.21376
O          2.00923        0.31829        1.28660
O          4.04154       -0.40778        0.09526
H          4.44243        0.04394       -0.66139
C          1.88867       -1.88840       -0.16453
H          0.79562       -1.84483       -0.19743
H          2.30811       -2.28951       -1.08680
H          2.24187       -2.43743        0.70831
N         -0.47407        1.83295        1.46740
H         -1.37113        1.30840        1.58966
H         -0.39855        2.60812        2.11820
H          0.31460        1.18497        1.58279
H         -0.46019        2.16040        0.44100
N         -0.48915        2.26539       -1.25605
H          0.31470        1.71162       -1.54864
H         -0.46527        3.14746       -1.75639
H         -1.32469        1.75304       -1.54779
