35
1sa1msa1ma1eda_26.log	Energy: -1035901.4001233
S         -2.83195        0.12406       -0.24087
O         -2.61965        1.27637       -1.13856
O         -2.90671       -1.17372       -0.91878
O         -1.90280        0.11959        0.91591
O         -4.27076        0.37693        0.47476
H         -4.93460        0.48052       -0.22034
S          2.52025       -0.85504       -0.14230
O          2.19784       -1.78175        0.97539
O          3.02688        0.46316        0.28002
O          1.35885       -0.74192       -1.08964
C          3.82877       -1.63565       -1.07037
H          4.68046       -1.76342       -0.40191
H          3.47113       -2.60099       -1.42874
H          4.08923       -0.98593       -1.90607
N         -0.48868       -2.20539        0.54625
H         -0.98355       -1.34154        0.86036
H         -0.37160       -2.07789       -0.46239
C         -1.27521       -3.41206        0.87076
H         -0.76150       -4.29515        0.49099
H         -1.37986       -3.48510        1.95289
H         -2.25600       -3.31178        0.40641
H          0.48128       -2.19626        0.92556
H          2.01609        2.28286       -1.04590
H          0.73320        3.39407       -1.59027
H          2.12151        4.18858        0.42079
H          0.37245        4.18379        0.69754
H          2.14131        1.99269        1.56562
H          1.28329        3.03721        2.53616
H          0.45525        0.75614       -0.91452
H          0.00022        1.53348        0.46958
C          1.07082        2.75462       -0.77368
C          1.24240        3.53870        0.53159
N          0.08870        1.66161       -0.55427
N          1.31745        2.58799        1.63087
H         -0.86345        1.81191       -0.92758
