40
1sa1msa2eda_290.log	Energy: -1095271.5723081
S         -0.69148       -1.73665       -0.24269
O         -0.99001       -0.54057       -1.03592
O         -0.03892       -1.42553        1.05888
O         -1.87934       -2.60566       -0.07223
O          0.33967       -2.64654       -1.05642
H         -3.10435       -1.64710       -0.56083
H          1.19064       -2.15577       -1.11170
S          3.12998       -0.21536        0.17248
O          3.41390        1.16561       -0.17074
O          2.60987       -1.09628       -0.88004
O          2.17811       -0.27282        1.42063
H          1.28114       -0.73748        1.22867
C          4.61036       -0.94735        0.82951
H          5.36229       -0.91424        0.04061
H          4.92831       -0.35785        1.68933
H          4.39096       -1.97549        1.11610
H         -5.44007       -0.18150        0.49688
H         -4.38728       -1.37386        1.30353
H         -3.95150        0.99767        2.09214
H         -2.52803        0.26423        1.34403
H         -4.25409        2.26231        0.10682
H         -2.61192        2.23868        0.22551
H         -4.57250       -1.28086       -1.32550
H         -3.43397       -0.06247       -1.08943
C         -4.40717       -0.51205        0.63462
C         -3.53562        0.64082        1.14061
N         -3.86484       -0.92070       -0.69129
N         -3.44602        1.64777        0.09256
H          1.02239        2.34668        0.98595
H         -0.29037        1.19030        0.72459
H          0.95145        1.39024       -1.33180
H         -0.63238        2.12870       -1.56038
H          1.88038        3.55836       -1.10423
H          0.88798        3.68494       -2.39012
H         -0.94652        3.35733        1.81516
H         -0.69285        4.05787        0.35983
C          0.07064        2.18711        0.45902
C          0.32407        2.23948       -1.03936
N         -0.95108        3.18350        0.81502
N          0.90399        3.54198       -1.38650
