26
1sa1msa1dma_73.log	Energy: -940974.9074531
S          1.98470       -0.76322       -0.08064
O          3.00790        0.24657       -0.17289
O          0.99700       -0.94291       -1.13058
O          2.71667       -2.18890        0.01256
O          1.28561       -0.67436        1.31640
H          3.59895       -2.06127        0.38976
H          0.28846       -0.66911        1.22940
S         -2.25052       -0.27831        0.10482
O         -2.80833        1.02849        0.38497
O         -1.31828       -0.87034        1.07581
O         -1.57260       -0.28716       -1.32725
H         -0.58800       -0.40757       -1.25178
C         -3.57097       -1.43461       -0.15000
H         -4.13269       -1.48607        0.78316
H         -4.19877       -1.05771       -0.95732
H         -3.13782       -2.40188       -0.40138
N          0.18688        1.99290        0.00939
C          0.69760        2.53541       -1.24311
C          0.84820        2.56665        1.17472
H         -0.80796        2.18838        0.07312
H          1.75092        2.26001       -1.35279
H          0.14557        2.10384       -2.08283
H          0.62243        3.63433       -1.30541
H          1.90851        2.29761        1.15701
H          0.77375        3.66644        1.21908
H          0.40874        2.15135        2.08565
