38
1sa1msa1dma1eda_131.log	Energy: -1060549.0726312
S         -1.32920        0.40436        0.90269
O         -0.42027       -0.27043       -0.09985
O         -1.98639       -0.55562        1.78448
O         -0.60476        1.51069        1.56608
O         -2.43420        1.11702        0.02334
H          0.94308        1.67961        1.04160
H         -3.15537        0.40400       -0.20960
S          2.55977       -1.71967       -0.15064
O          3.05710       -0.73765        0.82987
O          2.65072       -1.32266       -1.54873
O          1.11720       -2.17707        0.22865
H          0.41911       -1.39272        0.14495
C          3.43425       -3.24103        0.11201
H          4.48615       -3.04268       -0.09494
H          3.29180       -3.54532        1.14831
H          3.03746       -3.98527       -0.57782
N         -4.09785       -0.85405       -0.37277
C         -3.51418       -1.75878       -1.36409
C         -5.51730       -0.59055       -0.58983
H         -3.95062       -1.24140        0.55774
H         -3.57770       -1.29312       -2.35193
H         -2.45943       -1.91659       -1.12866
H         -4.02845       -2.72934       -1.40153
H         -5.64619       -0.08249       -1.55007
H         -6.11961       -1.51040       -0.60256
H         -5.89006        0.06722        0.19849
H          2.62498        1.95855       -1.39122
H          1.03538        1.17104       -1.25139
H          0.79412        3.50867       -2.14689
H         -0.01004        3.30387       -0.58701
H          2.50066        4.72876       -1.05101
H          1.20766        5.17580       -0.15409
H          2.43156        0.93440        0.74423
H          2.33319        2.62731        0.93301
C          1.65333        1.99453       -0.89197
C          0.96783        3.34180       -1.07663
N          1.87670        1.78936        0.56258
N          1.77321        4.38398       -0.43410
