36
1sa1msa2dma_91.log	Energy: -1025813.1760915
S         -0.53168        1.92038        0.05754
O         -0.78172        0.94119        1.11580
O          0.90727        2.07684       -0.29039
O         -1.38639        1.78471       -1.12942
O         -0.92715        3.33204        0.76310
H         -0.77540        4.03859        0.12083
S          2.92185       -0.58330       -0.24221
O          3.97875       -1.41845       -0.77035
O          1.77618       -1.24288        0.39571
O          2.40995        0.33534       -1.41827
H          1.74185        1.01297       -1.06950
C          3.57894        0.58383        0.92923
H          3.91647        0.01636        1.79697
H          4.41266        1.10270        0.45629
H          2.77965        1.27763        1.19577
N         -0.91649       -1.81981        0.55809
C         -0.62205       -3.07039       -0.16552
C         -1.20955       -2.00650        1.99245
H         -0.09981       -1.19685        0.48236
H         -1.48402       -3.73745       -0.09779
H         -0.42055       -2.83210       -1.21007
H          0.26066       -3.54263        0.26671
H         -2.10375       -2.62425        2.09813
H         -0.36060       -2.49340        2.47561
H         -1.37308       -1.02336        2.43250
H         -1.75455       -1.32006        0.09023
N         -3.07067       -0.57398       -0.60206
C         -3.95714       -0.12043        0.46925
C         -3.77084       -1.30267       -1.65512
H         -2.60615        0.24888       -0.99545
H         -4.38163       -0.98672        0.98927
H         -3.37407        0.47098        1.17886
H         -4.78801        0.49388        0.09419
H         -4.19134       -2.22856       -1.24724
H         -4.59426       -0.72235       -2.09612
H         -3.06788       -1.56432       -2.45016
