36
1sa1msa1ma1tma_15.log	Energy: -1025824.7027502
S         -2.87280       -0.21083        0.01687
O         -3.45097        0.81791       -0.84689
O         -2.89323       -1.57791       -0.56170
O         -1.55472        0.11454        0.58956
O         -3.82718       -0.27777        1.34349
H         -4.74482       -0.30742        1.04181
S          2.55768       -0.51506        0.29413
O          2.20244       -1.72096        1.06278
O          2.88898        0.68228        1.08337
O          1.49658       -0.20754       -0.74591
C          4.01626       -0.92650       -0.65302
H          4.29232       -0.06431       -1.26059
H          4.81177       -1.16857        0.05232
H          3.79078       -1.78588       -1.28503
N         -0.27964       -2.29693       -0.16337
H          0.22768       -1.47686       -0.55171
H         -0.08572       -2.22884        0.83702
C          0.23298       -3.56232       -0.72145
H         -0.29928       -4.40026       -0.27127
H          0.06810       -3.56446       -1.79873
H          1.29726       -3.63349       -0.49839
H         -1.30367       -2.15459       -0.32299
N          0.46149        2.32026       -0.24183
C          1.70268        3.01608       -0.66669
H          2.52529        2.64589       -0.05481
H          1.88843        2.78928       -1.71707
H          1.56511        4.09138       -0.53414
C         -0.69660        2.70888       -1.08715
H         -0.46573        2.47154       -2.12639
H         -1.58076        2.15441       -0.77500
H         -0.85915        3.78364       -0.97875
C          0.19373        2.53441        1.20720
H         -0.69652        1.96443        1.46993
H          1.05680        2.16533        1.76222
H          0.04554        3.60336        1.37731
H          0.64597        1.29877       -0.37619
