40
1sa1msa2eda_221.log	Energy: -1095280.5045602
S          0.32753       -1.30590       -0.52151
O          1.62710       -1.98916       -0.35152
O         -0.83851       -2.15154       -0.25991
O          0.23553       -0.21712        0.69861
O          0.24257       -0.50573       -1.75836
H          1.09115        0.27409        0.74792
H         -1.00948        0.90046       -1.49676
S          3.95496        0.44453        0.39922
O          4.66875        0.14530        1.62378
O          2.61429        1.04280        0.51559
O          3.87998       -0.81060       -0.54567
H          2.97717       -1.28558       -0.49157
C          4.94726        1.51996       -0.60758
H          5.08042        2.44787       -0.05073
H          5.90726        1.03205       -0.77552
H          4.42502        1.69625       -1.54708
H         -3.21392       -2.53033        1.30955
H         -4.48224       -1.63818        2.15712
H         -5.11544       -2.05120       -0.14180
H         -4.98266       -0.31307        0.17956
H         -2.69493       -1.75848       -0.97400
H         -3.89685       -1.16008       -1.92588
H         -2.63988       -0.50931        2.78817
H         -1.84288       -0.71108        1.40206
C         -3.70731       -1.55161        1.38888
C         -4.40576       -1.23997        0.07029
N         -2.76453       -0.49822        1.78095
N         -3.44090       -1.05965       -1.02469
H         -1.76102        3.24476       -1.14501
H         -2.84732        2.36468       -2.25180
H         -4.05180        3.63861       -0.41287
H         -4.43354        1.91681       -0.46458
H         -3.65753        3.12980        1.76376
H         -3.16792        1.57545        1.46632
H         -1.41517        1.20708        0.06035
H         -2.48144        0.33296       -0.92077
C         -2.48639        2.43201       -1.22240
C         -3.63596        2.64237       -0.23796
N         -1.80059        1.16699       -0.88867
N         -3.13905        2.54092        1.12564
