30
1sa1msa1a1dma_111.log	Energy: -976486.2018876
S         -1.03860       -0.00095       -0.76223
O          0.10821        0.60354       -1.46101
O         -2.20548       -0.32175       -1.57801
O         -0.56272       -1.41772       -0.18749
O         -1.42155        0.81277        0.44579
H          0.30705       -1.31036        0.27848
H         -2.82363        0.38422        0.87078
S          3.02034       -0.51055        0.24462
O          4.09192       -1.47776        0.16033
O          1.78320       -0.88379        0.95189
O          2.64141       -0.08365       -1.23404
H          1.68476        0.19971       -1.30900
C          3.61566        0.99332        0.96807
H          3.86828        0.76683        2.00501
H          4.50465        1.29422        0.41300
H          2.81676        1.74401        0.90082
N          0.98187        2.88369        0.43542
H          0.20406        2.31478        0.76373
H          0.89692        2.89738       -0.57657
H          0.84471        3.83103        0.77131
N         -3.82070        0.00852        1.07099
C         -3.77185       -1.47522        1.00034
C         -4.74920        0.62026        0.08784
H         -4.06922        0.29939        2.01536
H         -3.47636       -1.74793       -0.01288
H         -3.01787       -1.83406        1.70044
H         -4.75274       -1.88674        1.24422
H         -4.36931        0.38242       -0.90636
H         -5.75410        0.21928        0.23146
H         -4.74760        1.70105        0.22987
