38
1sa1msa1dma1eda_302.log	Energy: -1060544.6077444
S          0.75259       -2.20116       -0.46431
O         -0.61012       -2.04474        0.11044
O          1.70929       -1.42684        0.40871
O          1.15650       -3.54953       -0.77098
O          0.74958       -1.42691       -1.87662
H          0.61619       -0.46665       -1.73753
S          1.73846        1.69542       -0.18862
O          1.13947        1.89522        1.13718
O          0.80050        1.33420       -1.25619
O          2.90717        0.66545       -0.12189
H          2.49953       -0.28748        0.05507
C          2.62080        3.16191       -0.64234
H          1.88574        3.96430       -0.70944
H          3.35716        3.37082        0.13306
H          3.09757        2.98673       -1.60621
N         -0.61766       -0.16492        2.07102
C         -1.94581        0.35647        2.46753
C          0.12152       -0.85428        3.15396
H         -0.71195       -0.84403        1.27519
H         -1.82146        1.03076        3.31698
H         -2.39722        0.89273        1.62703
H         -2.58057       -0.48503        2.74903
H          0.31263       -0.14814        3.96332
H         -0.48289       -1.68720        3.51509
H          1.05656       -1.22863        2.73760
H         -0.03132        0.60877        1.71709
H         -4.04324        1.46521       -2.11722
H         -2.66368        2.43033       -1.56869
H         -1.92586        0.22911       -2.37655
H         -1.56124        0.44829       -0.66959
H         -3.73278       -1.19485       -1.72998
H         -2.48421       -1.62878       -0.75996
H         -4.48648        2.47357        0.04429
H         -4.34552        0.84569        0.22530
C         -3.26996        1.54891       -1.33423
C         -2.38284        0.31093       -1.37879
N         -3.83421        1.69803        0.00725
N         -3.13318       -0.87627       -0.97528
