36
1sa1msa1ma1tma_43.log	Energy: -1025813.5913773
S         -1.48795        0.24241       -0.46221
O         -1.72872        1.01626        0.76507
O         -0.44255        0.84291       -1.32401
O         -1.21267       -1.20109       -0.17266
O         -2.80327        0.25623       -1.33733
H         -3.46699       -0.40914       -0.91754
S          2.26428       -1.51902        0.11446
O          2.02788       -1.34393        1.54342
O          2.66978       -0.32374       -0.62608
O          1.05079       -2.22691       -0.57859
H          0.14259       -1.76023       -0.41169
C          3.49393       -2.77814       -0.13518
H          4.42048       -2.40418        0.30137
H          3.16653       -3.68598        0.37033
H          3.60947       -2.94170       -1.20620
N         -4.25719       -1.52821       -0.05567
H         -5.04582       -1.99045       -0.49571
C         -4.62190       -0.97549        1.25635
H         -4.97800       -1.73443        1.96276
H         -3.74608       -0.47713        1.67758
H         -5.40281       -0.22333        1.12230
H         -3.50978       -2.21152        0.04407
N          1.07984        2.48345        0.12789
C          2.35662        2.81454       -0.54634
H          2.97670        1.91883       -0.55806
H          2.14141        3.12304       -1.57005
H          2.84733        3.62698       -0.00459
C          0.12578        3.61996        0.12120
H         -0.04894        3.92274       -0.91155
H         -0.81018        3.27419        0.56146
H          0.54964        4.44809        0.69411
C          1.29138        1.96357        1.50453
H          0.32321        1.65581        1.90046
H          1.95289        1.09934        1.46054
H          1.73050        2.75720        2.11440
H          0.60310        1.72636       -0.43735
