30
1sa1msa2ma_01.log	Energy: -976509.1516283
S         -2.25658       -0.19120       -0.38999
O         -2.34368        1.16887       -0.98112
O         -3.49561       -0.93295       -0.31389
O         -1.31340       -1.06094       -1.36635
O         -1.48001       -0.11363        0.89565
H         -0.39803       -0.69145       -1.36410
H         -0.58699       -1.38481        1.28319
S          2.24712        0.15533       -0.20438
O          1.29780       -0.40749       -1.19593
O          2.39784       -0.71319        0.99582
O          1.95217        1.57085        0.14192
H          0.42634        2.23553        0.08373
C          3.84429        0.17275       -0.99276
H          4.09841       -0.85234       -1.26226
H          3.77750        0.80038       -1.88136
H          4.56679        0.57706       -0.28376
N         -0.49017        2.74518        0.11495
H         -0.38038        3.61865       -0.39499
C         -0.90130        2.97371        1.51901
H         -1.83389        3.53783        1.53604
H         -1.06104        1.99523        1.97002
H         -0.11649        3.51648        2.04616
H         -1.21590        2.15076       -0.37995
N          0.14288       -2.12462        1.50471
H          1.06527       -1.63253        1.40437
C          0.05635       -3.26646        0.56404
H          0.79018       -4.02294        0.84264
H         -0.95090       -3.68137        0.58722
H          0.26522       -2.89049       -0.43574
H          0.01942       -2.41817        2.47068
