24
1sa1msa2a_59.log	Energy: -927171.8843678
S         -2.33791        0.03579        0.06431
O         -1.22452        0.43968        1.00348
O         -3.62963       -0.09145        0.71329
O         -2.25216        0.80758       -1.17237
O         -1.90838       -1.49968       -0.34803
H         -2.58034       -2.08477        0.02603
S          1.82657       -0.91205       -0.02142
O          3.21715       -1.07829        0.35132
O          1.47307        0.23333       -0.86632
O          0.98863       -0.84642        1.31657
H          0.08576       -0.40844        1.18513
C          1.22934       -2.38659       -0.80973
H          1.77062       -2.49241       -1.75044
H          1.43595       -3.22666       -0.14670
H          0.15825       -2.26465       -0.97870
N         -0.07919        2.48943       -0.42722
H         -0.10489        1.95722       -1.29830
H          0.91940        2.73688       -0.17942
H         -0.68208        3.30306       -0.51083
H         -0.48073        1.82820        0.27524
N          2.64528        2.80967        0.23516
H          3.25144        3.56898       -0.05821
H          2.93529        1.96384       -0.25337
H          2.82079        2.64687        1.22273
