30
1sa1msa2ma_27.log	Energy: -976493.8068004
S          2.23444       -0.98520       -0.11276
O          3.36913       -0.93372       -1.01759
O          2.36889       -0.28646        1.17464
O          0.93571       -0.62072       -0.77269
O          2.04624       -2.54937        0.30642
H          2.53054       -3.07738       -0.34207
S         -2.34720       -0.57338       -0.02514
O         -2.50464        0.47043       -1.03228
O         -2.01567       -0.12213        1.33271
O         -1.33275       -1.66867       -0.49843
H         -0.37527       -1.29294       -0.59434
C         -3.82134       -1.55622        0.04918
H         -4.01148       -1.96086       -0.94433
H         -3.66872       -2.35060        0.77904
H         -4.62734       -0.89096        0.35973
N          0.05330        2.19985       -1.24054
H          0.59391        1.40174       -1.57231
C          0.44138        3.42958       -1.93398
H          0.29652        3.38119       -3.02019
H         -0.14361        4.26846       -1.54753
H          1.49673        3.63763       -1.74015
H         -0.91890        1.95847       -1.42697
N          0.31501        1.54517        1.44281
H          0.23910        1.92496        0.44260
H         -0.54256        0.99599        1.59828
C          0.49429        2.61179        2.44311
H          0.55611        2.17646        3.44071
H          1.41790        3.14960        2.22802
H         -0.34847        3.30224        2.39649
H          1.11031        0.87240        1.44143
