41
1sa1msa1tma1eda_66.log	Energy: -1085217.7493243
S         -2.50304        0.67370       -0.64436
O         -2.03762        1.61423       -1.66903
O         -3.04615       -0.59310       -1.13792
O         -1.52064        0.49359        0.46284
O         -3.72119        1.42437        0.14783
H         -4.41360        1.62212       -0.49727
S          2.50244       -0.82083       -0.48978
O          2.93385       -1.61634        0.66873
O          2.96072        0.60450       -0.45818
O          1.03437       -0.89039       -0.73872
C          3.29088       -1.53102       -1.92819
H          4.36972       -1.44869       -1.79404
H          2.99505       -2.57819       -2.00024
H          2.96893       -0.97879       -2.81137
H          0.98203        4.01684       -0.31937
H         -0.59436        3.43955        0.27513
H          0.80530        3.88148        2.20367
H          0.57155        2.14828        2.07589
H          2.81469        1.94565        1.22492
H          3.02455        3.58006        1.30121
H          1.57732        1.62146       -0.68665
H          0.05672        1.20909       -0.15325
C          0.47187        3.20764        0.21101
C          1.07221        3.00293        1.60597
N          0.59698        1.97236       -0.60013
N          2.50400        2.79911        1.68333
H          0.15553        2.07126       -1.51630
N         -1.06003       -2.20497        0.91155
C         -0.99608       -3.09260       -0.27866
H         -1.76632       -2.76785       -0.97892
H         -0.01393       -2.97084       -0.73139
H         -1.16626       -4.12250        0.04323
C          0.02369       -2.48965        1.88769
H          0.99365       -2.37919        1.39983
H         -0.05271       -1.77032        2.70402
H         -0.11067       -3.50345        2.27177
C         -2.40025       -2.25156        1.55080
H         -2.43012       -1.51113        2.34977
H         -3.14826       -2.00307        0.79824
H         -2.56288       -3.25387        1.95275
H         -0.93364       -1.22842        0.57520
