32
1sa1msa1a1eda_88.log	Energy: -1011235.1403143
S          2.44600        0.21405       -0.55331
O          1.49075        1.25064       -0.13945
O          1.80002       -0.60320       -1.73262
O          3.76931        0.60305       -0.94294
O          2.56752       -0.82809        0.62262
H          1.65430       -1.11610        0.93436
S         -0.97620       -1.69406        0.38331
O         -2.21314       -1.03216        0.85161
O          0.15837       -1.51785        1.33341
O         -0.60945       -1.25678       -0.99789
H          0.85948       -0.87654       -1.49745
C         -1.31156       -3.43877        0.30157
H         -1.58968       -3.77456        1.30054
H         -2.12845       -3.59373       -0.40318
H         -0.40590       -3.94106       -0.03893
N          0.64106        2.42981        2.62487
H          1.39777        2.23778        1.96927
H          0.69588        1.72699        3.35622
H          0.81618        3.33237        3.05366
H         -2.58961        3.10911        0.25421
H         -1.04693        3.27453       -0.63180
H         -2.79804        2.60227       -2.18090
H         -1.65821        1.26324       -1.99985
H         -4.19740        0.83628       -1.81434
H         -3.27435        0.14527       -0.65219
H         -0.74431        2.06526        1.47730
H         -1.78677        0.84179        0.90453
C         -1.81734        2.57367       -0.30151
C         -2.44039        1.84020       -1.48221
N         -1.16350        1.61643        0.62606
N         -3.57337        1.03624       -1.04260
H         -0.34136        1.19457        0.16528
