40
1sa1msa2eda_157.log	Energy: -1095285.7204754
S          0.90169        0.31440       -1.70367
O          1.59023        0.12934       -2.96694
O         -0.55934        0.58335       -1.78901
O          0.93816       -1.09322       -0.90205
O          1.56437        1.28960       -0.79081
H          1.90744       -1.29794       -0.67972
H          0.53271        1.61784        0.49626
S         -2.37690       -1.53156        0.38550
O         -3.70195       -1.83888        0.87812
O         -1.48625       -0.70760        1.21168
O         -2.53678       -0.87152       -1.03726
H         -1.71207       -0.36241       -1.32707
C         -1.51562       -3.04556        0.02390
H         -1.35038       -3.55899        0.97198
H         -2.14946       -3.64298       -0.63125
H         -0.57250       -2.78484       -0.45849
H         -1.24323        3.13701        2.34477
H          0.37496        3.68939        1.83112
H         -1.52501        4.63646        0.43138
H         -0.31524        3.75800       -0.50754
H         -2.99210        3.21284       -0.52708
H         -1.83102        2.12985       -0.96618
H          0.41225        1.24604        2.09313
H         -0.92216        1.10870        1.13722
C         -0.50750        3.11480        1.53798
C         -1.11514        3.64125        0.23609
N         -0.10321        1.70906        1.32681
N         -2.15935        2.73232       -0.21678
H          3.08621        0.79453        1.24864
H          3.51912        0.13772        2.82649
H          4.92889       -0.99282        1.32950
H          3.65422       -2.17015        1.67124
H          3.82451       -0.49718       -0.73992
H          4.00109       -2.11694       -0.65917
H          1.15764       -0.74107        1.30227
H          1.53394       -1.11570        2.84930
C          3.04175       -0.10649        1.87203
C          3.86009       -1.20786        1.18966
N          1.63443       -0.40051        2.13676
N          3.51878       -1.32916       -0.23736
