41
1sa1msa1tma1eda_101.log	Energy: -1085211.0904636
S          0.89183       -0.21778       -0.40780
O          1.32320        0.88071        0.48390
O          0.76217       -1.51930        0.25099
O         -0.37102        0.19417       -1.13094
O          1.94515       -0.35006       -1.57210
H          2.77785       -0.87583       -1.21367
S         -3.11494       -1.32476        0.19865
O         -4.49559       -1.73473        0.04495
O         -2.82787       -0.03946        0.84397
O         -2.46320       -1.32090       -1.24428
H         -1.59781       -0.80136       -1.23934
C         -2.20314       -2.58655        1.05509
H         -2.58714       -2.62323        2.07532
H         -2.38224       -3.53101        0.54121
H         -1.14354       -2.31838        1.03096
H          5.93137       -1.27760        0.23317
H          5.53563       -0.41315       -1.26956
H          5.56145        1.07752        0.74885
H          4.00861        1.07495       -0.09422
H          4.43732        0.36060        2.57523
H          3.02359        0.31319        1.71943
H          4.24006       -2.46009       -1.04010
H          3.59935       -1.89152        0.36271
C          5.13614       -0.74384       -0.30496
C          4.68295        0.46410        0.51727
N          3.97661       -1.61400       -0.54516
N          3.99725        0.02357        1.73044
N         -1.30770        2.47906       -0.03641
C         -0.29915        3.36307       -0.67252
H          0.68453        3.06449       -0.30995
H         -0.34510        3.22059       -1.75243
H         -0.51952        4.40191       -0.41628
C         -2.67544        2.73426       -0.55086
H         -2.67316        2.58886       -1.63185
H         -3.35420        2.01954       -0.08703
H         -2.95995        3.76149       -0.31111
C         -1.24187        2.55193        1.44586
H         -1.96566        1.84783        1.85317
H         -0.23514        2.26256        1.74698
H         -1.46945        3.57428        1.75763
H         -1.03988        1.50336       -0.32587
