32
1sa1msa1a1eda_115.log	Energy: -1011233.3832439
S          0.11501        2.32142       -0.06362
O         -0.91350        1.36387        0.36055
O          0.63456        1.88993       -1.48607
O         -0.21381        3.71601       -0.10855
O          1.36654        2.14446        0.87677
H          1.65874        1.18305        0.91257
S          1.83245       -1.32811       -0.22370
O          1.07251       -2.52150        0.20051
O          2.08131       -0.37330        0.89589
O          1.18824       -0.64807       -1.38938
H          0.86670        0.90955       -1.49702
C          3.42886       -1.88691       -0.77293
H          3.27683       -2.58892       -1.59263
H          3.99664       -1.01726       -1.10397
H          3.92054       -2.37355        0.06943
N         -0.54586       -0.58347        2.70230
H          0.40681       -0.72899        2.37173
H         -0.56591       -0.84347        3.68276
H         -0.71741        0.41666        2.64448
H         -3.00514       -2.69934        0.35981
H         -2.61806       -1.49818        1.62496
H         -4.78106       -0.92028        0.44132
H         -3.54018        0.31367        0.19859
H         -4.43954       -1.62245       -1.79133
H         -4.11963       -0.02495       -1.96186
H         -0.69581       -1.99353        0.15942
H         -1.59543       -1.36273       -1.11510
C         -2.76316       -1.65084        0.55458
C         -3.81455       -0.71911       -0.03790
N         -1.46872       -1.35427       -0.09809
N         -3.82595       -0.87270       -1.49294
H         -1.15750       -0.39893        0.15483
