27
1sa1msa1a1ma_189.log	Energy: -951813.6440422
S          1.71008        0.08919       -0.21205
O          0.65218        0.45524       -1.15070
O          2.88835        0.91972       -0.12935
O          1.10240        0.03222        1.24466
O          2.10197       -1.38656       -0.52967
H          0.19667       -0.38093        1.22266
H          3.06198       -1.58688       -0.15021
S         -2.42687       -0.70575        0.13280
O         -3.35973        0.25052        0.68396
O         -1.26837       -1.10838        0.94712
O         -1.89779       -0.22100       -1.28028
H         -0.93450        0.03536       -1.24025
C         -3.30028       -2.17615       -0.33925
H         -3.74950       -2.58398        0.56667
H         -4.07031       -1.89212       -1.05636
H         -2.59039       -2.87734       -0.77635
N          4.50386       -1.69227        0.38995
H          4.82315       -0.72582        0.40444
H          5.13378       -2.22779       -0.19910
H          4.56501       -2.05836        1.33505
N          0.10380        3.55202       -0.22481
H          0.50394        2.91899       -0.90876
C         -1.05674        2.93914        0.41185
H         -0.84586        2.01048        0.96497
H         -1.50551        3.64629        1.11543
H         -1.81233        2.71432       -0.34542
H          0.82915        3.74253        0.45771
