40
1sa1msa2eda_105.log	Energy: -1095294.5730213
S          2.51336       -1.49564        0.05906
O          3.38177       -0.37315        0.42747
O          1.95637       -2.26662        1.17170
O          1.46868       -1.12007       -0.94301
O          3.43235       -2.51403       -0.82078
H          4.18461       -2.77943       -0.27457
S         -2.31980        1.44632       -0.20149
O         -1.36672        0.75745        0.72562
O         -3.22674        0.49958       -0.87902
O         -1.59174        2.36545       -1.11766
C         -3.33968        2.48343        0.83272
H         -3.88670        1.84051        1.52289
H         -2.69246        3.16920        1.37951
H         -4.02700        3.03216        0.18844
H         -2.18188       -1.68948       -1.38957
H         -1.43109       -3.29865       -1.23538
H         -3.86443       -3.32041       -0.71178
H         -2.88579       -3.85278        0.65993
H         -3.88508       -1.09840        0.39692
H         -4.45892       -2.24098        1.44913
H         -0.03547       -1.66870       -0.25472
H         -1.26659       -0.99008        0.63285
C         -1.91354       -2.48473       -0.69018
C         -3.14804       -2.97783        0.05129
N         -0.92054       -1.89575        0.24301
N         -3.64551       -1.93294        0.93110
H         -0.67416       -2.51669        1.01360
H          3.02608        1.54272       -1.14981
H          2.12802        2.90288       -1.86723
H          3.74160        3.52825        0.02128
H          2.07754        4.07113        0.28841
H          3.15696        1.59045        1.46007
H          2.71332        2.96693        2.27468
H          1.03818        0.63277       -0.91605
H          0.96137        1.58529        0.42494
C          2.27766        2.31444       -0.96110
C          2.71697        3.18401        0.21937
N          1.01555        1.61902       -0.60679
N          2.55638        2.41226        1.44366
H          0.13179        2.05958       -0.93857
