30
1sa1msa1a1dma_40.log	Energy: -976499.7987754
S          0.72516       -1.61624       -0.29373
O          0.47978       -0.40598       -1.18264
O         -0.38523       -2.55247       -0.37099
O          2.08496       -2.11512       -0.44096
O          0.73235       -0.97377        1.20192
H         -0.14355       -0.55005        1.35340
S         -2.55867        0.55979        0.16829
O         -3.56988        1.58839        0.25842
O         -1.54604        0.48985        1.23696
O         -1.81647        0.73710       -1.21507
H         -0.93737        0.22613       -1.23390
C         -3.31508       -1.04187        0.03178
H         -3.83473       -1.22917        0.97229
H         -4.01905       -1.00855       -0.79956
H         -2.52670       -1.78039       -0.13639
N          3.64146       -0.19531        1.29704
H          4.64444       -0.15580        1.44436
H          3.42597       -1.02301        0.73511
H          3.19798       -0.35370        2.19729
N          2.08285        1.56269       -0.21509
C          1.22603        2.46735        0.57983
C          2.92444        2.23736       -1.22047
H          2.70768        0.98574        0.42669
H          0.60046        3.05885       -0.09089
H          0.58208        1.86572        1.22136
H          1.85389        3.12712        1.18139
H          2.29114        2.77702       -1.92638
H          3.59805        2.93661       -0.72162
H          3.50444        1.48317       -1.75324
H          1.47307        0.85080       -0.68449
