35
1sa1msa1ma1eda_45.log	Energy: -1035899.1922124
S         -2.87625       -0.78474        0.05526
O         -2.01127       -0.16986       -0.98032
O         -4.27137       -0.97126       -0.29128
O         -2.21964       -1.94900        0.68959
O         -2.82933        0.41101        1.20092
H         -3.40074        0.14910        1.93482
S          2.07993        1.29123        0.23466
O          2.44862        0.25936        1.22437
O          1.30008        2.42820        0.79436
O          1.37851        0.70650       -0.95227
C          3.60723        1.98540       -0.37249
H          4.13052        2.43311        0.47272
H          4.19915        1.18018       -0.80846
H          3.37307        2.74035       -1.12299
N         -1.01816        2.32145       -0.68746
H         -1.35235        1.32750       -0.74084
H         -0.23819        2.37767        0.00731
C         -2.13857        3.23148       -0.36949
H         -1.76853        4.25316       -0.28351
H         -2.89183        3.16453       -1.15422
H         -2.57587        2.90531        0.57273
H         -0.59130        2.52305       -1.58999
H          0.78795       -3.78017       -0.15929
H          0.51312       -2.81692       -1.63440
H          2.91706       -3.53035       -1.35022
H          2.73291       -1.77352       -1.40856
H          4.01893       -3.09085        0.56993
H          3.27323       -1.64005        0.82938
H         -0.54548       -1.87289        0.38032
H          1.00239       -1.66043        1.02658
C          1.01914       -2.84184       -0.66710
C          2.52969       -2.66680       -0.80211
N          0.46730       -1.73932        0.15576
N          3.13648       -2.60055        0.52309
H          0.58797       -0.83270       -0.33553
