27
1sa1msa1a1ma_15.log	Energy: -951843.6428101
S         -2.51148       -0.34945       -0.17761
O         -2.52898       -1.72927       -0.66705
O         -1.65911       -0.20152        1.03670
O         -2.23312        0.70292       -1.16703
O         -4.02940       -0.00214        0.28761
H         -4.40401       -0.79394        0.69570
S          2.58770       -0.15403       -0.00283
O          2.33884        1.29934        0.22098
O          1.67494       -0.69592       -1.05581
O          2.55694       -0.96519        1.23114
C          4.24112       -0.26439       -0.65941
H          4.92720        0.14560        0.08202
H          4.46057       -1.31566       -0.84628
H          4.28328        0.30861       -1.58569
N          0.13140       -2.22118        0.57159
H         -0.53562       -1.50045        0.93333
H         -0.38621       -3.06250        0.33346
H          0.59309       -1.79539       -0.26670
H          0.88841       -2.37035        1.24221
N         -0.09601        2.25496       -0.42601
H         -0.79808        1.56721       -0.78237
H          0.82984        1.78457       -0.24307
C         -0.60142        2.86849        0.82527
H          0.13955        3.57063        1.20660
H         -1.54565        3.37411        0.62387
H         -0.76829        2.06472        1.54078
H          0.04978        2.95175       -1.15325
