27
1sa1msa1a1ma_147.log	Energy: -951823.2847965
S          2.19653       -0.78653       -0.08714
O          3.16741        0.08399       -0.75995
O          2.36829       -0.82810        1.38672
O          0.79536       -0.56726       -0.47576
O          2.49193       -2.30091       -0.61584
H          3.44279       -2.45812       -0.54374
S         -2.60849       -0.19776       -0.05041
O         -2.07378        0.25662        1.22674
O         -2.54013        0.66948       -1.21215
O         -4.18014       -0.51724        0.21415
H         -4.69653       -0.02414       -0.43963
C         -1.98232       -1.81359       -0.40600
H         -0.90071       -1.69352       -0.53044
H         -2.21751       -2.45670        0.44216
H         -2.45900       -2.16719       -1.31981
N          0.56004        1.16541        1.96390
H         -0.36201        0.81090        1.67504
H          1.22992        0.36409        1.98150
H          0.93401        1.84699        1.20631
H          0.49330        1.61029        2.87398
N          1.56015        2.62667       -0.13579
H          1.99223        3.53537        0.00032
C          0.50150        2.70299       -1.15563
H          0.86082        3.08994       -2.11589
H          0.09881        1.70088       -1.31297
H         -0.30688        3.34696       -0.79870
H          2.29418        1.98941       -0.45565
