40
1sa1msa2eda_242.log	Energy: -1095275.1661489
S          1.02064       -0.28790       -0.99251
O         -0.43203       -0.28940       -1.32706
O          1.81514       -1.34643       -1.59905
O          1.56650        1.08403       -1.24872
O          1.03596       -0.48296        0.58265
H          0.46392        2.17331       -1.15976
H          1.94592       -0.86569        0.91030
S         -3.35577       -0.97533        0.30008
O         -3.69197        0.19425       -0.51038
O         -3.02958       -0.74353        1.70067
O         -2.23619       -1.82441       -0.41120
H         -1.47145       -1.24225       -0.76275
C         -4.68670       -2.15092        0.20657
H         -4.89636       -2.35277       -0.84318
H         -4.38351       -3.05723        0.73014
H         -5.54748       -1.69338        0.69509
H         -2.28335        3.30375       -0.62880
H         -1.88365        1.62591       -1.09454
H         -2.28651        1.84386        1.38429
H         -0.67074        1.27171        1.00359
H         -1.36679        3.91655        2.00286
H         -0.08921        2.96742        2.36630
H         -0.34176        3.43759       -1.96176
H          0.11870        3.62738       -0.35483
C         -1.55630        2.49301       -0.52432
C         -1.33202        2.14046        0.94129
N         -0.25028        2.97487       -1.06131
N         -0.68340        3.27972        1.60783
H          5.13562       -2.29086        0.76819
H          3.79722       -2.24413       -0.41012
H          5.47067       -0.53430       -0.95350
H          3.92728        0.20250       -0.52172
H          6.32033        0.12979        1.16298
H          5.38406        1.40760        0.75994
H          3.07734       -2.33065        1.95703
H          3.71035       -0.82005        2.14044
C          4.28303       -1.69948        0.40248
C          4.77718       -0.35636       -0.11995
N          3.29632       -1.46714        1.46989
N          5.36561        0.41868        0.97745
