40
1sa1msa2eda_283.log	Energy: -1095271.3331956
S         -0.39321       -0.55385        1.14425
O          0.88086       -0.93223        1.74172
O         -1.56618       -1.34604        1.55096
O         -0.66064        0.91674        1.24960
O         -0.17889       -0.82572       -0.43484
H          0.74204        1.68257        1.44588
H         -1.03160       -0.64406       -0.90160
S         -3.87083       -0.12343       -0.70968
O         -5.10270       -0.20171       -1.45958
O         -2.59783       -0.19418       -1.44247
O         -3.90268       -1.26585        0.38175
H         -3.01214       -1.34579        0.84032
C         -3.84516        1.36801        0.26044
H         -3.87245        2.20219       -0.44188
H         -4.72975        1.37017        0.89721
H         -2.92112        1.38267        0.84374
H          3.61060        1.72320        0.59587
H          2.47203        0.37159        0.53467
H          2.67518        1.48847       -1.70545
H          1.03904        1.55926       -1.06606
H          2.92629        3.79210       -1.17395
H          1.34155        3.76237       -1.56706
H          2.09862        1.96324        2.41180
H          1.66678        3.09440        1.23562
C          2.56704        1.44871        0.42803
C          2.05633        1.93402       -0.92000
N          1.72292        2.09645        1.47593
N          2.02659        3.40174       -0.91389
H          5.38200       -2.27778       -1.34051
H          5.52267       -2.14089        0.41790
H          3.37299       -3.15264       -0.25052
H          3.13070       -1.65001        0.63011
H          2.83558       -1.99447       -2.25497
H          1.75619       -1.40934       -1.17537
H          6.16331       -0.08658       -0.73090
H          4.63085        0.04167       -1.30501
C          4.98983       -1.74858       -0.45470
C          3.50392       -2.06230       -0.31190
N          5.19252       -0.30037       -0.52890
N          2.74627       -1.44683       -1.40474
