27
1sa1msa1a1ma_81.log	Energy: -951833.0073152
S          1.27846        1.31756        0.07604
O          1.62231        0.53885        1.27502
O          1.65438        0.69836       -1.19900
O         -0.12217        1.81580        0.07520
O          2.19711        2.64224        0.24818
H          2.02238        3.23042       -0.49908
S         -2.66083       -0.39046       -0.04924
O         -3.98039       -0.85093        0.31962
O         -1.59837       -1.39193       -0.22854
O         -2.20374        0.66001        1.03774
H         -1.34046        1.10880        0.76076
C         -2.72245        0.56449       -1.54812
H         -2.98537       -0.12065       -2.35444
H         -3.48528        1.33340       -1.42644
H         -1.73663        1.00493       -1.70735
N          0.69437       -2.04432        1.16605
H          0.70681       -2.72723        1.91661
H          0.98886       -1.10493        1.49363
H          1.38506       -2.27772        0.36553
H         -0.25565       -1.94324        0.76565
N          2.51025       -2.12347       -0.86373
H          2.58157       -2.83898       -1.57985
C          3.82444       -1.84108       -0.26904
H          4.56738       -1.50989       -1.00283
H          3.70443       -1.04871        0.47435
H          4.20359       -2.73593        0.23231
H          2.16388       -1.26896       -1.30663
