20
1sa1msa1a_06.log	Energy: -891674.4635401
S         -2.20730       -0.26414        0.10109
O         -0.93950       -0.38713       -0.67074
O         -2.43763       -1.26779        1.12344
O         -2.37798        1.14587        0.54003
O         -3.32794       -0.50271       -1.05018
H         -1.04873        1.95925        0.22689
H         -4.10139       -0.89470       -0.62299
S          2.19247       -0.12177       -0.02293
O          1.85071        0.62122        1.19893
O          2.14564        0.66412       -1.25411
O          1.31338       -1.41470       -0.14526
H          0.34407       -1.14558       -0.32611
C          3.78523       -0.86951        0.17584
H          4.50453       -0.05828        0.28997
H          3.76040       -1.49644        1.06672
H          3.99912       -1.45622       -0.71708
N         -0.07336        2.33589        0.00654
H          0.59749        1.93502        0.68416
H         -0.04444        3.35126        0.01742
H          0.21512        1.97499       -0.90742
