42
1sa1msa2tma_58.log	Energy: -1075121.2387350
S          1.01410        0.02757       -0.62390
O          1.64814        1.29112       -0.99175
O         -0.10201       -0.41898       -1.47867
O          2.01810       -1.06743       -0.43578
O          0.40370        0.31447        0.83297
H          3.34656       -0.38892       -0.00262
H         -0.24291       -0.39536        1.07178
S         -2.33541       -2.13469        0.24203
O         -3.63427       -2.60554        0.66122
O         -1.40573       -1.63031        1.26206
O         -2.56661       -1.00848       -0.84852
H         -1.68212       -0.63160       -1.12580
C         -1.48158       -3.40683       -0.66397
H         -1.25267       -4.20494        0.04287
H         -2.14397       -3.76279       -1.45279
H         -0.56825       -2.97339       -1.07549
N          4.23691        0.11658        0.32239
C          3.81466        1.08306        1.36906
H          3.11390        1.78747        0.92096
H          3.30981        0.53675        2.16633
H          4.69562        1.59854        1.75875
C          5.15196       -0.91529        0.85787
H          4.66412       -1.41985        1.69240
H          5.36703       -1.64077        0.07281
H          6.07784       -0.44418        1.19610
C          4.79765        0.80741       -0.86503
H          5.04983        0.05983       -1.61767
H          4.02987        1.47389       -1.25837
H          5.69176        1.36313       -0.57193
N         -2.56476        3.19449        0.29799
C         -2.43682        2.20020        1.34985
H         -1.37963        2.03085        1.56848
H         -2.92866        2.55895        2.25963
H         -2.88974        1.22914        1.07272
C         -3.95933        3.46204        0.00180
H         -4.46987        3.81470        0.90345
H         -4.03383        4.24421       -0.76029
H         -4.49400        2.56546       -0.36968
C         -1.84657        2.78480       -0.89649
H         -1.90505        3.57391       -1.65277
H         -0.79237        2.61349       -0.66394
H         -2.25777        1.85678       -1.33838
