36
1sa1msa1ma1tma_36.log	Energy: -1025816.2925232
S          0.07369       -1.95180        0.04968
O         -0.56273       -2.96245       -0.78383
O          1.20485       -2.35080        0.88385
O          0.48263       -0.73433       -0.79141
O         -1.03120       -1.37580        1.04361
H         -1.92023       -1.30144        0.51508
S         -0.80827        2.33008       -0.02837
O         -1.39562        3.55725       -0.52409
O          0.61952        2.29746        0.29513
O         -1.11984        1.19302       -1.08345
H         -0.47283        0.40000       -0.98209
C         -1.69933        1.79570        1.41670
H         -1.52149        2.53687        2.19682
H         -2.75963        1.75524        1.16561
H         -1.32452        0.81169        1.70419
N         -3.13802       -1.17969       -0.50137
H         -3.02985       -0.30113       -1.00304
C         -4.49754       -1.34026        0.02124
H         -5.26865       -1.30788       -0.75682
H         -4.56802       -2.29725        0.54247
H         -4.70238       -0.54839        0.74596
H         -2.90138       -1.92602       -1.15196
N          2.94417        0.06229       -0.10426
C          3.77402       -1.12115       -0.44183
H          3.39091       -1.97507        0.11657
H          3.68141       -1.31648       -1.51074
H          4.81563       -0.91298       -0.18621
C          3.32835        1.25596       -0.89656
H          3.24540        1.01245       -1.95654
H          2.64264        2.06669       -0.65219
H          4.35912        1.52690       -0.65618
C          2.94472        0.33516        1.35632
H          2.27576        1.17502        1.54282
H          2.57367       -0.55747        1.86069
H          3.96353        0.57059        1.67355
H          1.94881       -0.18949       -0.36344
