40
1sa1msa2eda_123.log	Energy: -1095293.3164211
S          2.98700       -0.19385       -0.50183
O          2.61602       -1.34482       -1.33991
O          2.80777        1.11291       -1.17415
O          2.40478       -0.23638        0.85174
O          4.58086       -0.32116       -0.21539
H          5.04117       -0.29976       -1.06545
S         -2.48764        0.14568       -1.09001
O         -2.95708        1.45446       -0.60830
O         -3.03708       -1.03812       -0.40269
O         -0.97098        0.09770       -1.10366
C         -2.96099        0.01565       -2.80521
H         -4.05012        0.03758       -2.85149
H         -2.53636        0.86280       -3.34366
H         -2.57686       -0.92466       -3.20078
H          1.28695        1.63267        1.56416
H          1.50385        3.35417        1.21659
H         -0.11285        3.09794        3.01389
H         -0.94128        3.75885        1.61707
H         -2.08008        1.79067        1.26560
H         -1.06823        0.87562        2.19582
H         -0.18678        1.45919       -0.38161
H          0.08349        3.06145       -0.71159
C          0.78710        2.52844        1.18940
C         -0.46541        2.84953        2.00462
N          0.48494        2.25049       -0.24347
N         -1.46305        1.80516        2.07324
H          1.36056        1.95203       -0.73141
H         -1.43737       -3.06808       -0.00988
H         -0.03639       -3.96576        0.62632
H         -1.76372       -3.52121        2.35949
H         -0.18771       -2.83717        2.77467
H         -2.33868       -1.23923        1.55608
H         -1.88473       -1.19000        3.14021
H          0.95351       -2.21303       -0.57309
H         -0.25886       -1.14443       -0.23263
C         -0.58151       -3.02063        0.66734
C         -1.04043       -2.73597        2.09233
N          0.30062       -1.93531        0.17068
N         -1.55825       -1.37923        2.19921
H          0.90404       -1.51547        0.89148
