41
1sa1msa1tma1eda_90.log	Energy: -1085216.9556127
S         -1.28079       -1.67832       -0.66316
O         -0.64075       -2.68847       -1.49694
O         -0.47293       -1.26032        0.50304
O         -1.50070       -0.33398       -1.53676
O         -2.68914       -2.00024       -0.28909
H         -3.41626       -0.68408        0.02517
S          1.50302        1.74323       -0.46493
O          2.64510        1.16094       -1.19401
O          1.36329        1.20034        0.91279
O          0.21923        1.68227       -1.22769
H         -0.73489        0.29205       -1.44955
C          1.83395        3.48908       -0.28006
H          2.76851        3.60213        0.26989
H          1.92006        3.92575       -1.27530
H          1.00846        3.94162        0.27055
H         -4.17279        1.43180        1.99602
H         -3.28639       -0.09259        2.27124
H         -1.80134        2.00142        2.30092
H         -1.29913        0.78009        1.13513
H         -2.45977        3.36040        0.52057
H         -1.42248        2.40311       -0.35442
H         -4.88463        0.15890        0.22006
H         -3.55441        0.97549       -0.40495
C         -3.40925        0.75743        1.59784
C         -2.08697        1.50204        1.36813
N         -3.87519        0.26065        0.27519
N         -2.25218        2.41097        0.23769
N          2.37255       -1.42992        0.77954
C          1.92776       -2.43803        1.77188
H          1.82542       -1.95130        2.74248
H          0.96066       -2.82247        1.45362
H          2.67593       -3.23207        1.82480
C          2.46030       -2.00811       -0.59119
H          1.49531       -2.44238       -0.85706
H          2.70774       -1.19808       -1.27811
H          3.24235       -2.77121       -0.58995
C          3.65167       -0.78888        1.17526
H          3.89795       -0.03834        0.42438
H          3.51641       -0.30727        2.14345
H          4.42554       -1.55772        1.23260
H          1.65820       -0.67117        0.75914
