38
1sa1msa1dma1eda_227.log	Energy: -1060548.8821444
S          0.34740        2.18638       -0.13551
O         -0.83150        1.78860        0.65077
O          0.72502        1.01484       -1.04062
O          0.28504        3.45300       -0.82563
O          1.59099        2.30863        0.87520
H          1.81299        1.42482        1.23653
S          2.85176       -1.05044        0.16917
O          2.05686       -2.22188       -0.18765
O          2.42636       -0.31911        1.36941
O          2.97429       -0.06484       -1.04336
H          2.09110        0.47601       -1.12895
C          4.55012       -1.52625        0.35175
H          4.59082       -2.24318        1.17217
H          4.87933       -1.98488       -0.58024
H          5.13211       -0.63459        0.58239
N         -1.09393       -1.01792       -0.42706
C         -1.01818       -2.13259       -1.39198
C         -0.97074       -1.44428        0.98699
H         -0.35374       -0.31883       -0.64379
H         -1.79763       -2.85758       -1.15224
H         -1.16556       -1.73698       -2.39803
H         -0.03335       -2.59441       -1.31442
H         -1.84287       -2.05262        1.23268
H         -0.04360       -2.00543        1.10376
H         -0.93889       -0.54410        1.60133
H         -1.99409       -0.48718       -0.54342
H         -5.83866       -0.45364       -0.21177
H         -5.50723       -1.09181        1.39970
H         -4.70860        1.23038        1.14564
H         -3.39856        0.11146        1.53714
H         -3.93388        1.13719       -1.15897
H         -2.64947        1.47961       -0.18873
H         -4.84892       -2.75898       -0.06341
H         -4.03529       -1.74055       -1.03991
C         -5.03178       -0.78321        0.46371
C         -4.11053        0.39482        0.75613
N         -4.27810       -1.92071       -0.07079
N         -3.33259        0.75940       -0.43225
