32
1sa1msa1a1eda_232.log	Energy: -1011229.0345217
S         -0.59867       -1.20011       -0.44563
O          0.00082       -0.21812       -1.39637
O         -0.63810       -0.63138        0.92910
O         -1.89088       -1.71355       -0.89920
O          0.36833       -2.46024       -0.40152
H          1.27127       -2.15183       -0.14651
S          3.06018        0.14825        0.21577
O          4.44846        0.54895        0.21199
O          2.73333       -1.28179        0.25771
O          2.37420        0.78966       -1.06159
H          1.48537        0.35137       -1.24094
C          2.21062        0.93725        1.56523
H          2.64127        0.54131        2.48591
H          2.38214        2.01071        1.48794
H          1.14944        0.68692        1.49343
N         -4.12937       -1.53019        1.02332
H         -4.03705       -2.07710        1.87393
H         -3.43258       -1.88116        0.35777
H         -5.04978       -1.71934        0.63972
H         -2.77420        0.67119       -1.07045
H         -4.13623        1.67164       -0.53917
H         -2.35045        2.98969       -1.69262
H         -2.67347        3.56597       -0.05469
H         -0.42779        1.79020       -0.72780
H         -0.32742        3.36859       -0.27724
H         -3.49510        0.08520        1.12842
H         -1.90005        0.58589        1.08438
C         -3.07179        1.47465       -0.39170
C         -2.24549        2.73365       -0.62754
N         -2.87768        0.94229        0.98355
N         -0.87727        2.52328       -0.18043
H         -3.04860        1.65125        1.69368
