41
1sa1msa1tma1eda_16.log	Energy: -1085219.9607555
S         -2.66702       -0.80035       -0.31838
O         -2.82486       -1.83117        0.71303
O         -3.25984        0.50357        0.00891
O         -1.27479       -0.70390       -0.82310
O         -3.45694       -1.34441       -1.64251
H         -4.38959       -1.44042       -1.40773
S          2.73098        0.76841       -0.33761
O          2.88436        0.44022        1.09565
O          2.30165        2.16692       -0.59713
O          1.85051       -0.21316       -1.04445
C          4.34389        0.61213       -1.08691
H          5.00904        1.33341       -0.61165
H          4.70355       -0.40455       -0.92425
H          4.24642        0.82008       -2.15244
H         -1.23333        1.19426        1.23656
H          0.38047        1.94271        1.38550
H         -1.57038        3.34991        2.27309
H         -0.58442        4.17488        1.05546
H         -3.09858        2.78042        0.40711
H         -2.84124        4.41620        0.36867
H         -0.58857        0.89979       -0.85031
H         -1.14347        2.48099       -0.99605
C         -0.59883        2.01852        0.91004
C         -1.28629        3.34834        1.21181
N         -0.42323        1.88658       -0.56148
N         -2.39960        3.50993        0.28235
H          0.54165        2.16224       -0.82686
N          0.98935       -2.28972        0.50899
C          0.15437       -3.37230       -0.07048
H         -0.87057       -3.01810       -0.15587
H          0.54905       -3.62422       -1.05511
H          0.20351       -4.24024        0.59113
C          2.39834       -2.72280        0.68817
H          2.80080       -3.01169       -0.28323
H          2.96289       -1.88115        1.09121
H          2.42164       -3.57241        1.37411
C          0.42630       -1.76777        1.78291
H          1.00929       -0.88956        2.06617
H         -0.62202       -1.51976        1.62013
H          0.50782       -2.54613        2.54521
H          1.02965       -1.48449       -0.16024
