40
1sa1msa2eda_186.log	Energy: -1095282.5994567
S          0.14057       -1.62570        0.48478
O          1.43497       -2.27402        0.63980
O         -1.02282       -2.53142        0.38940
O         -0.11198       -0.50816        1.43417
O          0.25738       -0.89784       -0.97124
H          0.79384        0.88667        0.97822
H         -0.59593       -0.43297       -1.13997
S         -3.33727       -0.05050       -0.36520
O         -4.59310        0.38982       -0.92786
O         -2.09074        0.45015       -0.97333
O         -3.32619       -1.62504       -0.38081
H         -2.43270       -2.00325       -0.08853
C         -3.27623        0.34656        1.36778
H         -3.33774        1.43266        1.45114
H         -4.13557       -0.12161        1.84771
H         -2.32974       -0.02444        1.76894
H          3.84169       -1.94416       -1.02191
H          5.05056       -0.96736       -1.85806
H          5.49197       -1.06050        0.53398
H          5.17813        0.60326       -0.00287
H          3.04535       -1.06245        1.15588
H          3.98575       -0.06701        2.05564
H          3.23138       -0.03868       -2.74986
H          2.24167       -0.43371       -1.52616
C          4.20070       -0.91590       -1.16967
C          4.71605       -0.37713        0.15978
N          3.16123       -0.05424       -1.73909
N          3.61653       -0.21370        1.12106
H          2.04522        2.81620       -0.90850
H          0.94377        1.49873       -1.31384
H         -0.28261        3.68187       -1.26846
H         -0.88982        2.56002       -0.05491
H          0.81789        4.88674        0.45881
H         -0.56269        4.44604        1.20998
H          2.42417        1.02899        0.69313
H          1.54582        2.30663        1.42873
C          1.16640        2.26148       -0.57083
C         -0.02750        3.17612       -0.32879
N          1.51686        1.58797        0.69942
N          0.27969        4.08749        0.77676
