30
1sa1msa1a1dma_93.log	Energy: -976491.3107623
S         -1.13155       -0.55709       -0.59635
O         -2.35581       -0.56059       -1.43099
O          0.09303       -0.19782       -1.34837
O         -1.30913        0.30305        0.61255
O         -0.96363       -2.03791       -0.10948
H         -2.91738        0.76688        0.71340
H          0.00710       -2.21077        0.26725
S          3.09394        0.50231        0.15808
O          3.51331       -0.65810       -0.62319
O          2.67866        0.25170        1.53619
O          1.99573        1.32232       -0.61566
H          1.20111        0.73403       -0.87674
C          4.39158        1.71491        0.15656
H          5.23569        1.27247        0.68606
H          4.65445        1.93532       -0.87745
H          4.03344        2.60483        0.67315
N          1.42108       -2.45846        0.80243
H          2.10258       -2.34827        0.05191
H          1.54938       -3.37537        1.21801
H          1.67016       -1.75200        1.49497
N         -3.89306        0.72406        0.31364
C         -4.44231        2.06937        0.07103
C         -4.73220       -0.16423        1.14046
H         -3.63823        0.24246       -0.58125
H         -4.57930        2.58231        1.02433
H         -3.73902        2.62613       -0.54825
H         -5.40097        1.98524       -0.44354
H         -4.87958        0.28737        2.12274
H         -5.69633       -0.31554        0.65234
H         -4.21715       -1.11940        1.24628
