39
1sa1msa1dma1tma_40.log	Energy: -1050477.4912236
S          0.46694       -1.52855       -0.80274
O          1.00040       -0.55340       -1.75551
O         -0.03121       -0.80205        0.45591
O         -0.57702       -2.43050       -1.28479
O          1.64857       -2.43587       -0.29567
H          2.43771       -1.83831        0.03232
S         -0.37328        2.57871       -0.03231
O         -0.33418        3.89624        0.56883
O         -1.66999        1.91991       -0.21479
O          0.55285        1.63315        0.83619
H          0.33941        0.64857        0.65355
C          0.45067        2.61460       -1.60673
H         -0.16549        3.21421       -2.27788
H          1.42494        3.08193       -1.46139
H          0.55405        1.58535       -1.95965
N          3.59233       -0.94759        0.61781
C          3.31086       -0.73796        2.04117
C          3.71625        0.31338       -0.12381
H          4.45514       -1.47585        0.52095
H          2.33654       -0.25283        2.13829
H          3.26403       -1.70436        2.54807
H          4.06634       -0.10781        2.52970
H          2.77985        0.86705       -0.03032
H          4.53538        0.93779        0.25863
H          3.87751        0.09833       -1.18149
N         -2.71231       -1.02858        0.52561
C         -3.27624       -0.75123       -0.82189
H         -3.07656        0.29223       -1.06296
H         -2.77145       -1.40259       -1.53545
H         -4.35086       -0.94832       -0.80087
C         -2.86192       -2.45795        0.89615
H         -2.35021       -3.05654        0.14233
H         -2.39153       -2.61729        1.86702
H         -3.92501       -2.70414        0.94771
C         -3.26683       -0.12016        1.55842
H         -2.76870       -0.32440        2.50713
H         -3.06984        0.90728        1.25302
H         -4.33984       -0.30158        1.65510
H         -1.67199       -0.85206        0.47171
