24
1sa1msa2a_81.log	Energy: -927163.5303593
S          1.84418        0.20093        0.16679
O          1.70637       -1.21822       -0.18401
O          0.89666        0.67518        1.20381
O          3.28477        0.39755        0.81139
O          1.78846        1.09714       -1.03354
H          3.92645       -0.24338        0.36512
H          0.60557        2.12582       -0.83592
S         -2.82963       -0.31101        0.02667
O         -3.68440       -0.08314        1.17832
O         -2.36950        0.83010       -0.75750
O         -3.64948       -1.25828       -1.00304
H         -4.52626       -1.41901       -0.62520
C         -1.45210       -1.33606        0.44302
H         -0.79916       -0.74866        1.09575
H         -1.83369       -2.22540        0.94365
H         -0.90677       -1.58491       -0.46797
N          4.68679       -1.51302       -0.46250
H          5.29748       -2.12228        0.07015
H          5.14705       -1.27687       -1.33472
H          3.82670       -2.01553       -0.67653
N         -0.21285        2.60720       -0.33411
H         -1.08883        2.12635       -0.58425
H         -0.26350        3.60734       -0.49683
H         -0.00572        2.37220        0.64609
