35
1sa1msa1ma1eda_167.log	Energy: -1035885.0329570
S          1.32790        2.09635        0.33115
O          2.01528        3.15044        1.04780
O          1.30131        0.76177        0.94295
O         -0.01345        2.52101       -0.17527
O          2.20702        1.79794       -1.02771
H          2.48970        2.64852       -1.38938
S         -2.44286        0.05928       -0.38285
O         -2.49809        0.50043        1.00732
O         -1.98043       -1.32526       -0.58263
O         -1.60539        1.02474       -1.25929
H         -0.89768        1.64632       -0.73591
C         -4.04517        0.21002       -1.13253
H         -4.71039       -0.48620       -0.62138
H         -4.38290        1.23799       -1.00349
H         -3.95437       -0.04328       -2.18853
N         -0.11825       -1.49090        1.59478
H         -0.86873       -1.58002        0.89265
H          0.61662       -2.21275        1.34072
C         -0.64913       -1.59923        2.96639
H          0.16136       -1.44636        3.67891
H         -1.41393       -0.83478        3.10426
H         -1.08455       -2.58856        3.11064
H          0.31538       -0.56266        1.43031
H          1.85457       -3.81537       -1.62086
H          0.24139       -3.35466       -1.04448
H          1.21208       -1.61339       -2.51753
H          0.91267       -0.99272       -0.90421
H          3.51479       -1.55140       -2.05053
H          3.01053       -0.30307       -1.10917
H          1.86913       -4.17768        0.70530
H          2.66537       -2.75597        0.46671
C          1.30759       -3.11260       -0.97578
C          1.53975       -1.68490       -1.47184
N          1.75014       -3.20958        0.42581
N          2.93381       -1.30413       -1.25767
