38
1sa1msa1dma1eda_201.log	Energy: -1060547.8461137
S         -0.11222       -0.79394       -0.93107
O         -1.33827       -1.51833       -1.31956
O          1.11170       -1.21722       -1.60683
O         -0.30954        0.73219       -1.39452
O          0.04853       -0.75160        0.55672
H         -1.16128        1.06230       -1.01985
H          1.67849       -1.04332        0.86393
S         -3.64048        0.43924        0.37314
O         -4.98801        0.91161        0.59474
O         -2.65280        1.37124       -0.18800
O         -3.72847       -0.84139       -0.54693
H         -2.81626       -1.11511       -0.87738
C         -2.96852       -0.19709        1.89305
H         -2.91917        0.63755        2.59367
H         -3.64473       -0.96889        2.26059
H         -1.97024       -0.59148        1.68675
N          2.70771       -1.23543        0.92226
C          2.93918       -2.65429        0.58834
C          3.22737       -0.81295        2.23478
H          3.15357       -0.61269        0.17639
H          2.47279       -3.28941        1.34374
H          2.48800       -2.84208       -0.38618
H          4.01345       -2.84793        0.55531
H          2.68436       -1.32386        3.03187
H          4.29010       -1.05540        2.30091
H          3.10522        0.26781        2.32538
H          3.42510        2.38951       -1.79089
H          2.20029        1.10686       -1.86756
H          1.51918        2.91468       -0.35323
H          1.65373        1.38249        0.48836
H          3.68098        3.50841        0.58011
H          2.76271        2.97582        1.80906
H          4.34950        0.13903       -1.63748
H          4.65815        0.99981       -0.26961
C          2.94357        1.57914       -1.22280
C          2.24056        2.16327       -0.00568
N          3.92360        0.55681       -0.81615
N          3.22314        2.68156        0.95420
