41
1sa1msa1tma1eda_97.log	Energy: -1085210.0261448
S         -0.80697       -0.14399        0.56675
O         -0.62980        1.20003       -0.05670
O         -1.24370       -1.16231       -0.40570
O          0.40708       -0.57036        1.31478
O         -1.92288        0.03015        1.65711
H         -2.70789        0.62155        1.27742
S          2.85273        1.63391       -0.28819
O          3.95598        2.46009       -0.73449
O          2.93477        0.18670       -0.50546
O          1.54671        2.19884       -0.96774
H          0.70451        1.73498       -0.64117
C          2.56184        1.89786        1.44816
H          3.46590        1.58415        1.97189
H          2.37771        2.96068        1.60361
H          1.70825        1.28432        1.74538
H         -4.58505        2.00458       -1.25144
H         -2.92607        1.36568       -1.21052
H         -4.47398       -0.32789       -2.10656
H         -3.76798       -0.85981       -0.58033
H         -6.51098        0.10117       -0.96336
H         -5.99646       -1.26040       -0.21826
H         -3.61307        2.46217        0.87868
H         -4.73039        1.26248        1.08978
C         -3.92423        1.26496       -0.77647
C         -4.46122       -0.13928       -1.02388
N         -3.82739        1.49090        0.67534
N         -5.77258       -0.28723       -0.38616
N          1.62373       -2.52111       -0.09511
C          3.02359       -2.76132        0.32835
H          3.62853       -1.91372        0.00941
H          3.05024       -2.84567        1.41552
H          3.37957       -3.68893       -0.12623
C          0.70665       -3.58896        0.37624
H          0.78886       -3.66712        1.46054
H         -0.31023       -3.30030        0.10859
H          0.98689       -4.53399       -0.09485
C          1.51215       -2.32211       -1.56503
H          0.47287       -2.08024       -1.78820
H          2.15600       -1.48956       -1.84483
H          1.81901       -3.24349       -2.06619
H          1.28723       -1.63947        0.37724
