41
1sa1msa1tma1eda_14.log	Energy: -1085220.2542605
S          2.85107       -0.84793        0.01851
O          2.99413       -1.91879       -0.96849
O          3.38502        0.46004       -0.37349
O          1.47866       -0.75615        0.59000
O          3.70220       -1.32346        1.33709
H          4.60987       -1.49182        1.05142
S         -2.67776        0.66862        0.28862
O         -2.10429        1.83980        1.00068
O         -3.17721       -0.40500        1.16526
O         -1.72625        0.14869       -0.74997
C         -4.08378        1.29793       -0.61473
H         -4.79163        1.70440        0.10808
H         -3.74007        2.07559       -1.29686
H         -4.53413        0.47273       -1.16710
H          1.71120        1.90367       -1.17132
H         -0.05966        1.84414       -1.36813
H          0.85573        4.14572       -1.86465
H         -0.25281        4.16254       -0.48408
H          2.67603        4.18930       -0.27093
H          1.61359        5.30447        0.29468
H          0.94175        0.83769        0.69394
H          1.21083        2.43918        1.18597
C          0.75832        2.28890       -0.79954
C          0.72653        3.81097       -0.82635
N          0.62525        1.83083        0.60571
N          1.73943        4.31904        0.09883
H         -0.37042        1.89110        0.90651
N         -1.13804       -2.48165       -0.30022
C         -2.50226       -2.96040       -0.63558
H         -3.20928       -2.45583        0.02378
H         -2.71623       -2.70628       -1.67433
H         -2.54181       -4.04341       -0.49909
C         -0.11543       -3.04031       -1.22096
H         -0.38074       -2.76669       -2.24304
H          0.86498       -2.63123       -0.97517
H         -0.10915       -4.12788       -1.11682
C         -0.81167       -2.74395        1.12794
H          0.18020       -2.33743        1.32392
H         -1.55901       -2.23520        1.73821
H         -0.83791       -3.82285        1.29804
H         -1.16906       -1.44030       -0.43056
