42
1sa1msa2tma_60.log	Energy: -1075122.4840715
S          0.51308       -1.35188       -0.24868
O         -0.66231       -2.00957       -0.85842
O          0.87074       -0.07357       -0.87655
O          0.11807       -1.04120        1.28016
O          1.68604       -2.24935       -0.09476
H         -0.75569       -0.57982        1.28517
H          2.95504       -1.29413       -0.02360
S         -3.37763       -0.35060        0.09456
O         -4.56868        0.45599       -0.03284
O         -2.33034        0.09348        1.02434
O         -2.75883       -0.51777       -1.35202
H         -1.90020       -1.03444       -1.29199
C         -3.80570       -2.02162        0.53559
H         -4.22357       -1.99493        1.54250
H         -4.54259       -2.38271       -0.18157
H         -2.89452       -2.62188        0.50300
N          3.77749       -0.62217        0.07435
C          3.38056        0.38385        1.09412
H          2.50411        0.91630        0.72486
H          3.12232       -0.13616        2.01696
H          4.21159        1.07310        1.26117
C          4.94031       -1.42772        0.51027
H          4.70384       -1.90169        1.46324
H          5.13749       -2.19664       -0.23721
H          5.81267       -0.77949        0.61998
C          3.99123        0.00540       -1.25408
H          4.24967       -0.77324       -1.97232
H          3.05695        0.48057       -1.55314
H          4.80059        0.73559       -1.18068
N          0.01042        3.45317        0.11853
C          1.29890        3.46683       -0.54520
H          1.25522        4.10996       -1.43006
H          2.05939        3.87436        0.13096
H          1.61704        2.45745       -0.87299
C          0.06262        2.68764        1.35168
H          0.80418        3.12766        2.02859
H         -0.91176        2.71695        1.84655
H          0.31942        1.62686        1.18240
C         -1.02994        2.94862       -0.76896
H         -1.99627        2.98215       -0.25874
H         -1.09084        3.58470       -1.65777
H         -0.84202        1.91015       -1.08935
