29
1sa1msa1tma_15.log	Energy: -965658.5134499
S          1.12135       -1.60908       -0.00352
O          1.31282       -0.62510       -1.08348
O          1.61867       -1.16340        1.30075
O         -0.25339       -2.16696        0.04292
O          2.06327       -2.84339       -0.48323
H          1.89287       -3.59560        0.09968
S         -2.42987        0.35101       -0.09093
O         -3.58265        1.08881       -0.56161
O         -1.18240        1.08012        0.15132
O         -2.16834       -0.81898       -1.12112
H         -1.38224       -1.36520       -0.81644
C         -2.83173       -0.52597        1.40571
H         -3.00130        0.21877        2.18408
H         -3.73576       -1.10670        1.22324
H         -1.98739       -1.17203        1.65320
N          1.66860        1.83652       -0.01154
C          3.12470        1.64182       -0.22653
H          3.45023        0.80474        0.39106
H          3.29438        1.40130       -1.27542
H          3.65169        2.55759        0.05004
C          1.11014        2.90762       -0.87250
H          1.32642        2.66629       -1.91363
H          0.03175        2.93678       -0.72090
H          1.57228        3.85970       -0.60237
C          1.36116        2.05070        1.42684
H          0.28648        2.18422        1.53167
H          1.67163        1.15828        1.97049
H          1.90275        2.93502        1.77087
H          1.23293        0.93652       -0.31895
