27
1sa1msa1a1ma_82.log	Energy: -951833.7569694
S         -1.48841        1.24591        0.00344
O         -0.77877        0.36086       -0.96266
O         -2.92625        0.98160        0.01877
O         -0.82088        1.27274        1.31641
O         -1.27809        2.76275       -0.52768
H         -1.84605        2.89623       -1.29907
S          2.56227       -0.28859       -0.14443
O          3.91764       -0.55601       -0.56624
O          1.82888       -1.36079        0.54632
O          1.74767        0.16456       -1.41578
H          0.75906        0.25623       -1.22415
C          2.52458        1.15047        0.90208
H          3.08279        0.90430        1.80646
H          3.00636        1.96757        0.36518
H          1.48339        1.38852        1.13603
N         -0.65227       -1.48619        1.76724
H         -1.48375       -1.82042        1.15169
H         -0.60705       -1.99341        2.64592
H          0.24688       -1.57341        1.25757
H         -0.77658       -0.47152        1.92870
N         -2.73635       -2.08873        0.08937
H         -3.50531       -2.66318        0.42111
C         -2.20461       -2.61670       -1.17738
H         -2.97028       -2.71472       -1.95487
H         -1.43297       -1.93292       -1.53486
H         -1.75293       -3.59726       -1.00546
H         -3.10659       -1.14696       -0.05605
