40
1sa1msa2eda_216.log	Energy: -1095279.7351458
S          0.62011       -1.71278       -0.11630
O          0.39574       -1.05780        1.18230
O          0.48406       -0.75015       -1.25260
O          1.92319       -2.42794       -0.16670
O         -0.46002       -2.83178       -0.33854
H          2.95332       -1.60802        0.66169
H         -1.35258       -2.40504       -0.66210
S         -0.79361        2.38689       -0.23670
O         -1.79189        3.39892       -0.51701
O          0.60433        2.64444       -0.58285
O         -1.26862        1.06384       -0.98408
H         -0.51436        0.37846       -1.08519
C         -0.87045        1.92967        1.47912
H         -0.50659        2.78506        2.05023
H         -1.91487        1.71079        1.71514
H         -0.24289        1.04684        1.62227
H          5.39532        0.04241        0.26764
H          4.61791       -1.11444       -0.84908
H          4.10870        1.31685       -1.43377
H          2.65757        0.37018       -1.08677
H          3.84135        2.38132        0.64729
H          2.26754        2.07672        0.28518
H          4.29680       -1.43184        1.70430
H          3.22902       -0.14089        1.50640
C          4.43958       -0.34059       -0.10099
C          3.56295        0.79337       -0.63982
N          3.70128       -0.94049        1.04360
N          3.16796        1.64130        0.48163
H         -4.72067       -1.88909       -0.21819
H         -3.51073       -2.96204        0.51211
H         -3.85322       -1.18659        2.06606
H         -2.27874       -0.90279        1.33416
H         -3.29990        0.81792       -0.02228
H         -4.76547        0.53761        0.67714
H         -3.09815       -2.37811       -1.86971
H         -2.69743       -0.87086       -1.38491
C         -3.66558       -1.96764        0.07949
C         -3.35722       -0.90052        1.13289
N         -2.76114       -1.84002       -1.07692
N         -3.76324        0.45891        0.80629
