41
1sa1msa1tma1eda_75.log	Energy: -1085218.2713243
S         -0.98899        1.44082       -0.95490
O         -0.93915        0.07522       -1.76075
O         -0.08978        2.40876       -1.58127
O         -2.42980        1.80409       -0.99338
O         -0.57928        1.11137        0.44904
H         -3.11828        1.05501        0.20708
H          1.04368        1.43494        0.64459
S          1.55148       -2.02900       -0.19773
O          0.29511       -2.55743        0.36896
O          2.50523       -1.50008        0.80000
O          1.32048       -1.04875       -1.31064
H         -0.05143       -0.39119       -1.60259
C          2.36417       -3.41379       -0.98333
H          2.57942       -4.15883       -0.21687
H          1.69118       -3.82027       -1.73860
H          3.28590       -3.05506       -1.44176
H         -4.83906       -1.18715        1.14694
H         -4.53226       -0.63590       -0.52234
H         -3.26539       -2.78343        0.10516
H         -2.21675       -1.46385       -0.42386
H         -2.47875       -2.45661        2.27882
H         -1.17307       -1.88841        1.45478
H         -4.23075        1.01036        1.49336
H         -2.77294        0.16484        1.62868
C         -4.07838       -0.81898        0.45284
C         -2.89264       -1.78785        0.37216
N         -3.54122        0.46056        0.98919
N         -2.16648       -1.73646        1.63727
N          1.97400        1.89613        0.82632
C          1.68108        3.34694        0.91886
H          1.23036        3.66258       -0.02244
H          0.97345        3.51004        1.73249
H          2.61141        3.88585        1.11268
C          2.49951        1.34559        2.10033
H          1.77732        1.55372        2.89111
H          2.62522        0.26881        1.97486
H          3.45285        1.82927        2.32689
C          2.87075        1.59661       -0.32203
H          3.03260        0.52049       -0.35727
H          2.36987        1.92478       -1.23284
H          3.81194        2.13274       -0.17480
