41
1sa1msa1tma1eda_134.log	Energy: -1085209.1360352
S          0.57935       -1.03556       -0.19514
O          1.22496       -0.16122       -1.19668
O          0.05812       -0.22415        0.94822
O         -0.44204       -1.94037       -0.75391
O          1.67237       -2.00906        0.39464
H          2.41905       -1.45830        0.83592
S         -3.51543       -0.49116       -0.01427
O         -4.95600       -0.47810       -0.16092
O         -2.80376        0.79024       -0.01933
O         -2.94055       -1.41686       -1.15604
H         -1.94701       -1.56239       -1.05276
C         -3.06276       -1.35022        1.47778
H         -3.50504       -0.79858        2.30843
H         -3.47262       -2.35857        1.42415
H         -1.97330       -1.35484        1.55080
H          5.65339       -0.02763        1.12276
H          5.24347       -1.75537        1.01714
H          5.69229       -0.68755       -1.21290
H          4.10018       -1.44129       -1.09403
H          4.57305        1.16225       -1.79309
H          3.12279        0.51069       -1.36711
H          3.68346       -0.60233        2.44704
H          3.31087        0.43061        1.22640
C          4.89722       -0.74526        0.77646
C          4.71146       -0.60527       -0.73324
N          3.60332       -0.52226        1.43838
N          4.07747        0.67775       -1.05625
N         -0.25675        2.33793        0.13071
C         -0.59064        2.46364       -1.31365
H          0.06792        1.79514       -1.86815
H         -1.62641        2.15584       -1.44916
H         -0.44527        3.50364       -1.61582
C         -1.17769        3.12837        0.98293
H         -2.19755        2.80729        0.77824
H         -0.93627        2.93678        2.02924
H         -1.04638        4.18940        0.75791
C          1.16289        2.68241        0.39186
H          1.36914        2.51987        1.45040
H          1.79632        2.02993       -0.20918
H          1.33086        3.73050        0.13412
H         -0.35173        1.32262        0.39962
