42
1sa1msa2tma_08.log	Energy: -1075140.7439319
S         -0.64461        1.30146       -0.50145
O          0.12690        2.35216       -1.18210
O         -1.07373        0.17948       -1.37471
O          0.26643        0.70340        0.61120
O         -1.85726        1.86971        0.20558
H         -2.87327        0.85843        0.28367
S          1.35960       -2.45093        0.03324
O          1.59389       -3.78484        0.55388
O          2.50400       -1.54766       -0.12790
O          0.28312       -1.75970        0.94817
H          0.25530       -0.72261        0.79177
C          0.54351       -2.56737       -1.54416
H          1.27644       -2.93751       -2.26213
H         -0.28016       -3.27470       -1.44151
H          0.17212       -1.57359       -1.81029
N          2.71323        1.67139        0.35137
C          2.53506        3.11630        0.63055
H          1.81219        3.50870       -0.08504
H          2.14015        3.23067        1.64088
H          3.50087        3.62070        0.54376
C          3.58815        1.01226        1.34887
H          3.16310        1.16906        2.34133
H          3.61978       -0.05459        1.12685
H          4.58699        1.45300        1.29695
C          3.17624        1.43676       -1.03964
H          3.23946        0.36024       -1.19658
H          2.43488        1.86908       -1.71232
H          4.15375        1.90775       -1.17385
H          1.74353        1.23093        0.43430
N         -3.66175        0.08022        0.35461
C         -3.00175       -1.15395        0.83973
H         -2.23486       -1.43975        0.12053
H         -2.52101       -0.94618        1.79635
H         -3.74592       -1.94714        0.95603
C         -4.67208        0.57846        1.30761
H         -4.19328        0.74505        2.27330
H         -5.07193        1.52369        0.93825
H         -5.47857       -0.15283        1.41300
C         -4.21005       -0.09327       -1.00846
H         -4.65205        0.85038       -1.33113
H         -3.38035       -0.34270       -1.67073
H         -4.96884       -0.88117       -1.00387
