33
1sa1msa1a1tma_23.log	Energy: -1001159.5187748
S          1.72854        0.12811        0.05153
O          1.81739        1.25825        0.98147
O          1.72208       -1.20626        0.66777
O          0.54713        0.32659       -0.87389
O          2.97288        0.19102       -0.93201
H          3.65976       -0.50416       -0.65223
S         -2.11764       -1.60888       -0.03551
O         -3.34508       -2.27532       -0.41792
O         -2.19497       -0.28486        0.58958
O         -1.21575       -1.50432       -1.33320
H         -0.46556       -0.84409       -1.18748
C         -1.16585       -2.66339        1.03269
H         -1.71587       -2.75436        1.97014
H         -1.07319       -3.63302        0.54341
H         -0.18576       -2.20335        1.18306
N          4.56406       -1.76738       -0.06068
H          5.33834       -1.52886        0.54940
H          4.88628       -2.45147       -0.73642
H          3.82538       -2.18615        0.50170
N         -0.88003        2.45499       -0.00076
C         -1.09106        2.49794        1.46933
H         -1.76077        1.68319        1.74039
H         -0.12258        2.35679        1.94882
H         -1.52558        3.46524        1.73298
C          0.08216        3.49447       -0.44606
H          1.01849        3.34059        0.09020
H          0.25386        3.37200       -1.51575
H         -0.33802        4.48132       -0.23935
C         -2.15746        2.52217       -0.75175
H         -1.94335        2.40648       -1.81495
H         -2.79524        1.70527       -0.41624
H         -2.62892        3.49035       -0.56786
H         -0.42627        1.53532       -0.23556
