33
1sa1msa1a1tma_14.log	Energy: -1001163.4186646
S         -2.34050       -0.64439       -0.29551
O         -1.72647       -0.20043        0.98326
O         -2.12889        0.28562       -1.40426
O         -2.06896       -2.05962       -0.60278
O         -3.93383       -0.56609        0.07114
H         -4.42837       -0.83548       -0.71443
S          2.43559       -0.54869       -0.09291
O          3.10429        0.66441        0.41222
O          1.03734       -0.30057       -0.54261
O          2.48576       -1.70641        0.85270
C          3.34351       -1.07109       -1.53813
H          3.31783       -0.26137       -2.26777
H          4.36947       -1.28229       -1.23573
H          2.86675       -1.96425       -1.94206
N         -0.07005       -2.40725        1.27932
H         -0.23017       -3.11523        1.98896
H         -0.53605       -2.66604        0.39573
H         -0.55201       -1.52127        1.51911
H          0.96053       -2.21633        1.13247
N         -0.05879        2.17239        0.17751
C          0.44896        2.19010        1.57444
H         -0.24924        1.62250        2.18944
H          1.43804        1.72951        1.58625
H          0.50408        3.22709        1.91341
C          0.89834        2.81188       -0.76217
H          1.87106        2.33542       -0.63681
H          0.52924        2.66342       -1.77704
H          0.95827        3.87774       -0.53097
C         -1.40919        2.78272        0.08381
H         -1.78399        2.65174       -0.92940
H         -2.07024        2.25992        0.77302
H         -1.32452        3.84006        0.34497
H         -0.10381        1.17123       -0.09724
