35
1sa1msa1ma1eda_36.log	Energy: -1035901.4678378
S         -2.98744        0.34156        0.11718
O         -2.59364        1.53463        0.89451
O         -4.39910        0.24078       -0.19675
O         -2.03809        0.05776       -0.98434
O         -2.64428       -0.94792        1.11659
H         -3.28873       -0.94476        1.83630
S          2.49523       -0.94646        0.08908
O          3.05924        0.32474       -0.39289
O          2.14807       -1.91443       -0.98587
O          1.31869       -0.74176        1.00481
C          3.75058       -1.72969        1.08461
H          4.60933       -1.92797        0.44289
H          4.02106       -1.04560        1.88904
H          3.34680       -2.65903        1.48626
N         -0.55665       -2.18331       -0.53551
H          0.39645       -2.20239       -0.95442
H         -0.38285       -2.01372        0.45931
C         -1.35594       -3.39893       -0.78081
H         -2.32291       -3.28111       -0.29254
H         -1.49937       -3.51749       -1.85424
H         -0.83276       -4.26793       -0.38200
H         -1.06965       -1.33112       -0.85466
H          0.94041        1.26089       -1.26371
H         -0.56066        2.20346       -1.31612
H          1.61677        3.47287       -1.89627
H          0.62463        4.23676       -0.64448
H          2.91380        2.48919       -0.04429
H          2.83006        4.12389        0.20965
H          0.49673        0.77708        0.82214
H          0.72479        2.37057        1.18872
C          0.39765        2.09068       -0.81070
C          1.24491        3.36144       -0.86903
N          0.14623        1.73784        0.61903
N          2.28860        3.27094        0.14792
H         -0.86608        1.78519        0.85519
