32
1sa1msa1a1eda_114.log	Energy: -1011234.9174292
S         -2.39922        0.49978        0.17144
O         -2.08926        0.77527       -1.24196
O         -2.60685       -0.94540        0.43216
O         -1.49914        1.17555        1.11868
O         -3.83032        1.19592        0.50030
H         -4.52489        0.68055        0.06940
S          1.44649       -1.59844        0.22641
O          2.89113       -1.37737        0.36932
O          1.04564       -2.98064       -0.16703
O          0.78939       -0.61280       -0.69607
C          0.70665       -1.32466        1.82951
H          1.12464       -2.05808        2.51979
H          0.94153       -0.31135        2.15674
H         -0.37455       -1.43865        1.73838
N         -1.20670       -2.30593       -1.49175
H         -0.78942       -1.47175       -1.91519
H         -1.85753       -1.93947       -0.75937
H         -1.68684       -2.88185       -2.17550
H         -0.39931       -2.79983       -1.02430
H          1.82636        3.56221       -1.13958
H          1.09398        3.74911        0.47420
H          3.44247        3.06687        0.72347
H          2.42683        1.72365        1.22527
H          4.25345        1.74912       -0.94175
H          3.37127        0.46942       -0.37287
H         -0.12826        2.32758       -1.34861
H          0.89701        1.11321       -0.85092
C          1.52970        3.03586       -0.23042
C          2.74316        2.30878        0.35216
N          0.48855        2.04009       -0.58956
N          3.33220        1.44631       -0.65797
H         -0.15311        1.81028        0.19939
