35
1sa1msa1ma1eda_142.log	Energy: -1035886.9431334
S          1.07188        1.22848       -0.56770
O          0.16676        0.60330        0.47555
O          1.43020        0.27657       -1.61706
O          0.45090        2.49438       -1.02273
O          2.37637        1.64528        0.19692
H         -1.03854        2.60851       -0.40175
H          3.08457        0.86369        0.15002
S         -2.62336       -1.14498       -0.17121
O         -2.84290       -1.24782       -1.60123
O         -3.03979        0.11775        0.47450
O         -1.14668       -1.46351        0.22143
H         -0.54411       -0.59603        0.27294
C         -3.46723       -2.47381        0.65188
H         -3.09092       -3.41285        0.24629
H         -3.27554       -2.39947        1.72154
H         -4.52963       -2.35995        0.43489
N         -1.93337        2.63371        0.16754
H         -2.59311        3.27329       -0.26907
C         -1.60824        3.02591        1.55941
H         -2.51540        3.02081        2.16366
H         -0.89490        2.29390        1.93654
H         -1.15424        4.01651        1.55705
H         -2.34185        1.67624        0.16322
H          4.65817       -2.15267        0.87931
H          4.06919       -0.91663        2.01915
H          2.45512       -2.77791        1.63342
H          1.78141       -1.19258        1.24626
H          1.61792       -3.21585       -0.41576
H          1.84543       -1.71222       -1.00146
H          5.04495        0.06626        0.03745
H          3.93652       -0.68433       -0.90235
C          3.91966       -1.35459        1.02680
C          2.51560       -1.94508        0.92534
N          4.09286       -0.28765        0.02443
N          2.26777       -2.43989       -0.42746
