20
1sa1msa1a_21.log	Energy: -891667.2819452
S         -1.66217       -0.65492       -0.07009
O         -1.24169       -1.68859       -0.98582
O         -1.11015        0.71395       -0.41076
O         -3.13278       -0.52798        0.14993
O         -1.11462       -0.96942        1.39544
H         -0.12894       -0.94304        1.36362
S          2.32420        0.03138       -0.03975
O          2.99520       -0.91724       -0.89973
O          1.54435       -0.47231        1.09867
O          1.41242        1.00796       -0.88843
H          0.42578        0.84396       -0.73002
C          3.52091        1.18482        0.59083
H          4.23530        0.60954        1.18047
H          4.01607        1.65701       -0.25760
H          3.00637        1.91939        1.20899
N         -3.47615        1.98133       -0.01924
H         -4.05764        2.30206       -0.78840
H         -2.47228        2.06275       -0.25395
H         -3.69581        2.48823        0.83353
H         -3.53546        0.88768        0.11630
