38
1sa1msa1dma1eda_167.log	Energy: -1060549.5321250
S          0.38258       -1.69422        0.05212
O          0.85454       -0.99167        1.25074
O         -0.16973       -0.66195       -0.92485
O          1.30827       -2.61915       -0.57419
O         -0.88886       -2.58228        0.45881
H         -1.56614       -2.00293        0.86866
S         -3.12144        0.29134        0.02478
O         -2.64578        1.65431        0.24534
O         -2.85052       -0.68179        1.08666
O         -2.60353       -0.26007       -1.35200
H         -1.60103       -0.50582       -1.26142
C         -4.86534        0.32406       -0.29728
H         -5.34381        0.70781        0.60417
H         -5.04659        0.98540       -1.14408
H         -5.19339       -0.69283       -0.50977
N          0.71580        1.80540        0.05784
C          0.18066        2.81267       -0.88046
C          0.43139        2.09120        1.48044
H          0.32836        0.87567       -0.19864
H          0.64734        3.77835       -0.67519
H          0.41635        2.49919       -1.89849
H         -0.90033        2.87753       -0.75365
H          0.91722        3.02949        1.75680
H         -0.64838        2.16623        1.61452
H          0.81790        1.26267        2.07236
H          1.76398        1.73283       -0.09977
H          5.43226        1.20193        0.02495
H          4.29889        1.59798        1.33009
H          4.77343       -0.85615        1.19027
H          3.06291       -0.48764        0.97605
H          4.87305       -1.44836       -1.06483
H          3.26374       -1.72962       -0.84871
H          3.80851        2.58638       -0.93801
H          3.43717        1.05033       -1.39554
C          4.39093        1.09400        0.36192
C          4.04763       -0.39018        0.50995
N          3.45417        1.69657       -0.60102
N          3.99195       -1.02082       -0.80708
