33
1sa1msa1a1tma_64.log	Energy: -1001151.6291987
S         -0.55647       -1.60652       -0.40430
O         -0.45198       -0.25647       -1.11411
O         -0.25256       -1.41857        1.02181
O         -1.79697       -2.28545       -0.72786
O          0.60833       -2.47823       -1.05486
H          1.46257       -2.00911       -0.92040
S          2.77291        0.46816        0.11312
O          3.88843        1.37598       -0.02762
O          2.78895       -0.81003       -0.60316
O          1.45345        1.25315       -0.31157
H          0.75614        0.60288       -0.66623
C          2.49074        0.12949        1.83520
H          3.36042       -0.42089        2.19644
H          2.39819        1.08258        2.35624
H          1.58178       -0.47134        1.91061
N         -3.27276       -1.14950        1.70849
H         -3.98938       -1.44559        2.36343
H         -2.36779       -1.35242        2.12853
H         -3.31354       -1.76964        0.90118
N         -2.05681        1.68236       -0.27390
C         -1.54981        2.79065       -1.11854
H         -0.47342        2.88513       -0.96764
H         -1.75249        2.55775       -2.16432
H         -2.05303        3.71771       -0.83542
C         -3.50913        1.43788       -0.46205
H         -3.68841        1.18832       -1.50836
H         -3.79174        0.60525        0.18679
H         -4.05831        2.34288       -0.19104
C         -1.71349        1.87130        1.15980
H         -2.10461        1.01381        1.70891
H         -0.62752        1.92012        1.24956
H         -2.16916        2.79874        1.51474
H         -1.53683        0.81867       -0.59385
