38
1sa1msa1dma1eda_68.log	Energy: -1060561.3169787
S          2.64833        1.05224       -0.27179
O          1.76612        0.40276        0.74592
O          3.30451        0.09424       -1.15615
O          1.98304        2.18486       -0.93178
O          3.80517        1.69035        0.68348
H          4.46806        2.10005        0.11120
S         -2.03456       -1.32860       -0.28975
O         -2.15791       -0.15565       -1.20343
O         -1.59909       -0.92132        1.06710
O         -1.18772       -2.41387       -0.85566
C         -3.67324       -2.01713       -0.15319
H         -4.33567       -1.24985        0.24838
H         -3.99728       -2.32105       -1.14870
H         -3.62810       -2.87563        0.51705
N          1.28349       -2.26978        0.30384
C          1.04164       -2.84839        1.64285
C          2.38404       -2.90176       -0.45372
H          0.38784       -2.33101       -0.23601
H          1.92664       -2.69878        2.26303
H          0.17969       -2.33851        2.07453
H          0.83132       -3.91402        1.53788
H          3.30802       -2.81858        0.11976
H          2.14047       -3.95080       -0.62956
H          2.50801       -2.37007       -1.39608
H          1.48624       -1.25316        0.42408
H         -1.80177        1.95015        1.78684
H         -0.73293        3.33132        1.44673
H         -2.95735        4.06783        0.90568
H         -2.15617        3.80202       -0.63041
H         -3.35312        1.68451       -0.78875
H         -4.10857        2.00443        0.62701
H          0.05016        1.13762        0.62167
H         -1.20514        1.09327       -0.46330
C         -1.41190        2.60021        0.99963
C         -2.55817        3.28670        0.25052
N         -0.60711        1.74009        0.09800
N         -3.65453        2.43424       -0.17162
H          0.00923        2.27142       -0.53029
