41
1sa1msa1tma1eda_152.log	Energy: -1085204.2289488
S          1.94254       -1.29869       -0.93566
O          1.51642       -0.45680       -2.05749
O          2.94697       -0.69404       -0.05515
O          0.80984       -1.88804       -0.16926
O          2.61788       -2.63217       -1.58078
H          3.33663       -2.34854       -2.16161
S         -2.48616       -0.90474        0.09983
O         -2.70616        0.33723       -0.63729
O         -1.95268       -0.77269        1.45664
O         -1.62281       -1.90522       -0.73681
H         -0.60410       -1.86979       -0.53873
C         -4.01778       -1.80259        0.15340
H         -4.73065       -1.18407        0.69928
H         -4.35272       -1.96594       -0.87065
H         -3.84550       -2.74801        0.66656
H          0.32205        2.57914       -2.81975
H          0.48244        4.24673       -2.24472
H          1.71207        2.65576       -0.80768
H          0.42699        3.50335        0.08484
H         -0.93475        1.52058       -0.21831
H          0.29250        0.78744       -1.01260
H         -1.77858        4.00214       -2.65000
H         -1.89485        2.55814       -1.90463
C          0.03460        3.27384       -2.01482
C          0.62752        2.76657       -0.70267
N         -1.41072        3.45158       -1.88309
N          0.08086        1.47108       -0.28276
N          0.96070        0.79066        2.19719
C          2.27274        1.47465        2.25612
H          2.95627        0.94162        1.59392
H          2.14915        2.50301        1.91221
H          2.64249        1.46837        3.28487
C         -0.08891        1.51542        2.94809
H         -0.18263        2.52266        2.53777
H         -1.03063        0.98066        2.81795
H          0.18341        1.56708        4.00525
C          1.06426       -0.62341        2.63612
H          0.11444       -1.11596        2.43420
H          1.85395       -1.10665        2.06399
H          1.29270       -0.63835        3.70600
H          0.64143        0.86903        1.15939
