41
1sa1msa1tma1eda_120.log	Energy: -1085210.6256297
S         -0.86203       -1.30339        1.26076
O         -2.00085       -1.92465        1.92467
O          0.46927       -1.76570        1.73391
O         -0.87265       -1.79426       -0.27872
O         -0.94510        0.17705        1.20330
H         -1.80350       -1.63410       -0.63914
H          0.15420        1.48257        0.28350
S          2.53251       -0.63175       -0.78036
O          3.84671       -0.20294       -1.22081
O          1.39993        0.26103       -1.04920
O          2.62455       -0.89861        0.76756
H          1.72478       -1.22137        1.16258
C          2.14315       -2.22608       -1.46170
H          2.09557       -2.10735       -2.54480
H          2.93708       -2.91734       -1.18005
H          1.17375       -2.53056       -1.06204
H         -2.97982        1.23835       -0.05698
H         -3.45793        2.10330       -1.51956
H         -4.87195        0.23228       -1.44642
H         -3.66400       -0.17029       -2.67483
H         -3.67752       -1.18776        0.08852
H         -3.91538       -2.04052       -1.28034
H         -1.05593        0.42338       -1.22948
H         -1.49835        1.21507       -2.58899
C         -2.96730        1.19371       -1.15252
C         -3.80932       -0.00622       -1.60103
N         -1.57271        1.22821       -1.57666
N         -3.42485       -1.23785       -0.89838
N          0.45225        2.42120        0.60745
C          1.04981        3.15422       -0.53537
H          1.92558        2.60800       -0.87991
H          0.30516        3.18328       -1.33068
H          1.31590        4.16101       -0.20531
C         -0.77271        3.09507        1.10445
H         -1.46321        3.18981        0.26686
H         -1.21636        2.46814        1.87653
H         -0.50136        4.07665        1.49930
C          1.42719        2.18034        1.70124
H          0.94351        1.55671        2.45277
H          2.28780        1.65040        1.29520
H          1.73173        3.14011        2.12389
