24
1sa1msa2a_19.log	Energy: -927177.5134164
S          1.91184       -0.67074        0.02581
O          2.30897        0.06981        1.23019
O          1.28678       -1.97552        0.21778
O          1.13034        0.19987       -0.91090
O          3.32629       -0.93203       -0.72110
H          3.20651       -1.66958       -1.33458
S         -2.25453       -0.28369        0.01360
O         -3.63553        0.02290       -0.28606
O         -1.64312        0.32492        1.20441
O         -1.40285        0.11663       -1.25892
H         -0.40332        0.06972       -1.09099
C         -2.01991       -2.03911        0.14102
H         -2.57886       -2.37155        1.01652
H         -2.41511       -2.49473       -0.76679
H         -0.95071       -2.23395        0.25921
N          0.46393        2.09587        1.52608
H         -0.40320        1.52881        1.53104
H          0.49630        2.71795        2.32772
H          1.26017        1.42127        1.53656
H          0.48545        2.62788        0.60749
N          0.46743        3.06687       -1.09492
H         -0.46253        2.94574       -1.48725
H          1.02957        2.28396       -1.42885
H          0.85171        3.92822       -1.46806
