36
1sa1msa2dma_109.log	Energy: -1025814.4473002
S         -0.24449       -1.40392       -0.38917
O          0.12727       -0.32813       -1.36140
O         -0.20051       -0.89694        0.99567
O         -1.51927       -2.05518       -0.73439
O          0.84510       -2.55065       -0.54492
H          1.73643       -2.13978       -0.44016
S          3.22858        0.35392        0.11189
O          4.50374        1.01918       -0.02843
O          3.13001       -1.07359       -0.21493
O          2.16890        1.14845       -0.75740
H          1.39386        0.55381       -1.01834
C          2.62633        0.57011        1.77177
H          3.33210        0.06763        2.43448
H          2.59524        1.63925        1.98239
H          1.63693        0.11124        1.83154
N         -3.32796       -0.34569        0.42058
C         -4.68644       -0.30059       -0.14765
C         -3.27318       -0.47234        1.89138
H         -2.77992       -1.12534       -0.00793
H         -5.22352        0.55651        0.26339
H         -4.61011       -0.20005       -1.23090
H         -5.22207       -1.22020        0.09468
H         -3.72103        0.41320        2.34693
H         -3.81913       -1.36474        2.20361
H         -2.22405       -0.56373        2.17537
H         -2.78017        0.53923        0.11328
N         -1.80363        1.77418       -0.44163
C         -1.04791        2.34128        0.67831
C         -2.44769        2.79238       -1.26880
H         -1.15297        1.22995       -1.01290
H         -1.73520        2.84479        1.36675
H         -0.54486        1.52680        1.20445
H         -0.29494        3.06879        0.34607
H         -3.20972        3.31653       -0.68241
H         -1.73488        3.53891       -1.64602
H         -2.93499        2.31745       -2.12425
