39
1sa1msa1dma1tma_124.log	Energy: -1050465.6930666
S         -1.06625        1.89976       -0.44354
O         -1.39921        2.00556        0.97128
O          0.27291        2.38161       -0.84532
O         -1.37489        0.56644       -1.02160
O         -2.08710        2.93946       -1.16867
H         -1.73308        3.13844       -2.04597
S          2.66688        0.16563        0.34863
O          2.97328       -0.47482       -0.92087
O          1.51818       -0.34865        1.09455
O          2.53854        1.72977        0.18385
H          1.63895        1.98452       -0.20492
C          4.10815        0.12821        1.38712
H          4.33214       -0.92255        1.57372
H          4.92888        0.60713        0.85373
H          3.88252        0.64981        2.31650
N          0.02388       -2.26395       -0.95570
C         -0.30345       -2.26514       -2.37476
C          1.04778       -3.24230       -0.61765
H          0.36654       -1.34053       -0.70523
H         -0.78953       -3.21246       -2.64004
H         -0.99493       -1.44540       -2.58477
H          0.58153       -2.14611       -3.02053
H          0.65778       -4.25397       -0.78291
H          1.96982       -3.12317       -1.20772
H          1.30940       -3.14210        0.43982
N         -2.45041       -1.04210        0.87931
C         -3.59241       -0.21858        1.34844
H         -3.20594        0.74551        1.67870
H         -4.28213       -0.06902        0.51689
H         -4.09586       -0.74238        2.16436
C         -2.88758       -2.35258        0.33938
H         -3.63028       -2.17990       -0.44098
H         -2.00130       -2.83221       -0.08394
H         -3.32636       -2.94109        1.14880
C         -1.41604       -1.19675        1.93603
H         -0.59644       -1.78410        1.52539
H         -1.04866       -0.20530        2.20094
H         -1.86677       -1.69506        2.79781
H         -1.99306       -0.50612        0.09659
