36
1sa1msa1ma1tma_02.log	Energy: -1025830.7170645
S         -0.94459        1.82478       -0.32478
O         -0.79889        0.82633        0.78721
O         -0.57468        1.01255       -1.65805
O         -2.31209        2.27037       -0.54342
O          0.07718        2.88449       -0.15433
H          1.25895        2.20117        0.78782
S          1.70423       -1.41805       -0.18602
O          0.47890       -2.23483       -0.24357
O          2.07348       -0.97412        1.18824
O          1.70022       -0.26597       -1.13886
H          0.28769        0.53195       -1.52067
C          3.03988       -2.47288       -0.72675
H          3.09796       -3.31985       -0.04269
H          2.81756       -2.80932       -1.73961
H          3.96597       -1.89803       -0.70702
N          2.06541        1.75100        1.29521
H          2.08137        2.10542        2.24835
C          3.32658        2.02273        0.57121
H          4.15990        1.56241        1.10230
H          3.22847        1.57610       -0.41810
H          3.47550        3.09897        0.48491
H          1.90166        0.71406        1.32600
N         -2.50378       -1.16644        0.40782
C         -2.49525       -1.54304       -1.03003
H         -2.62350       -0.63751       -1.62322
H         -1.52676       -1.99027       -1.25246
H         -3.31019       -2.24772       -1.21468
C         -2.24289       -2.32934        1.28841
H         -1.27715       -2.75224        1.01151
H         -2.21001       -1.98229        2.32202
H         -3.04613       -3.06035        1.16522
C         -3.74526       -0.44179        0.77537
H         -3.69119       -0.17070        1.83014
H         -3.80231        0.46921        0.17694
H         -4.60666       -1.08927        0.59495
H         -1.71804       -0.46594        0.55288
