24
1sa1msa2a_77.log	Energy: -927161.7040307
S          1.89764        0.06012        0.34350
O          1.12217        0.58305        1.45857
O          1.97414       -1.38252        0.15539
O          1.36238        0.68774       -0.97771
O          3.36051        0.62782        0.48656
H          0.73283        1.56681       -0.77052
H          4.01892       -0.00137        0.01472
S         -2.95054       -0.33101       -0.18292
O         -2.70899        1.08672       -0.39134
O         -3.75169       -1.07979       -1.13495
O         -3.67350       -0.47147        1.26484
H         -4.47204       -1.00591        1.14789
C         -1.40771       -1.14422        0.12444
H         -0.80425       -1.04547       -0.77961
H         -0.91204       -0.64868        0.96105
H         -1.60615       -2.19311        0.34144
N         -0.15392        2.62360       -0.41317
H         -0.11250        3.46044       -0.98538
H          0.06761        2.86933        0.54840
H         -1.10780        2.25665       -0.42816
N          4.87078       -1.19384       -0.69316
H          5.70647       -1.49571       -0.20376
H          5.10671       -1.04731       -1.66896
H          4.17651       -1.93677       -0.63958
