36
1sa1msa1ma1tma_13.log	Energy: -1025824.4831344
S         -2.60664       -0.68885       -0.23468
O         -2.88876        0.36789       -1.20713
O         -2.35699       -2.02135       -0.78049
O         -1.57150       -0.27699        0.76812
O         -3.92312       -0.80956        0.72338
H         -4.64852       -1.15786        0.18731
S          2.93460       -0.03091       -0.04419
O          2.84987       -1.02670        1.06678
O          2.89171        1.37078        0.41050
O          1.92809       -0.32744       -1.10583
C          4.54027       -0.27023       -0.78822
H          5.29651       -0.08789       -0.02437
H          4.60463       -1.29393       -1.15749
H          4.64260        0.44202       -1.60728
N          0.48711       -2.17152        0.38902
H         -0.28321       -1.55916        0.71065
H          0.69501       -1.85288       -0.56653
C          0.13808       -3.60252        0.47437
H          0.96028       -4.19575        0.07435
H         -0.02553       -3.86309        1.51998
H         -0.77468       -3.77129       -0.09546
H          1.36076       -1.90558        0.89823
N         -0.75568        2.28565        0.20772
C          0.20372        2.76423        1.23810
H         -0.24301        2.61311        2.22180
H          1.14045        2.20953        1.14204
H          0.38813        3.82808        1.07182
C         -0.15813        2.28537       -1.15671
H          0.71895        1.63553       -1.15626
H         -0.90708        1.90070       -1.84954
H          0.12138        3.30984       -1.41233
C         -2.03212        3.04196        0.24941
H         -2.71813        2.59839       -0.47190
H         -2.45434        2.96115        1.25193
H         -1.83011        4.08841        0.01084
H         -0.99652        1.29217        0.43250
