39
1sa1msa1dma1tma_52.log	Energy: -1050476.0089144
S          1.09889        0.52989        0.40797
O          2.06411        1.62476        0.29212
O         -0.03932        0.78485        1.32590
O          0.57311        0.12244       -0.94091
O          1.82072       -0.73282        1.01897
H          2.75905       -0.86468        0.56252
S         -2.17303       -1.90604       -0.05631
O         -3.04614       -3.00346       -0.41943
O         -2.73481       -0.55225        0.00431
O         -0.96130       -1.92133       -1.06545
H         -0.36447       -1.09556       -0.99118
C         -1.41717       -2.24553        1.51791
H         -2.22391       -2.30554        2.24964
H         -0.89554       -3.19912        1.44050
H         -0.73296       -1.43023        1.75901
N          4.13159       -0.96375       -0.12834
C          5.00621        0.04229        0.48440
C          3.92510       -0.73550       -1.56366
H          4.52678       -1.88931        0.01103
H          4.50499        1.01148        0.42560
H          5.15718       -0.20182        1.53828
H          5.98221        0.10432       -0.01586
H          3.43910        0.23410       -1.69465
H          4.87030       -0.74295       -2.12299
H          3.25848       -1.50329       -1.96138
N         -1.81193        2.24501       -0.15181
C         -3.11940        2.42062        0.52686
H         -3.69283        1.50336        0.40320
H         -2.93860        2.60200        1.58673
H         -3.63789        3.27281        0.08183
C         -0.92304        3.41927        0.04533
H         -0.76600        3.56274        1.11378
H          0.04026        3.21721       -0.42409
H         -1.39397        4.29863       -0.39932
C         -1.97367        1.92112       -1.59397
H         -0.98893        1.69712       -2.00348
H         -2.60708        1.03934       -1.67405
H         -2.42480        2.78106       -2.09466
H         -1.32199        1.44672        0.31877
