33
1sa1msa1a1tma_22.log	Energy: -1001159.4735816
S         -2.08538        1.05290        0.03540
O         -1.65834       -0.24233        0.57459
O         -1.42020        1.21477       -1.38932
O         -3.48702        1.33129       -0.09133
O         -1.43086        2.19035        0.89758
H         -0.43233        2.05651        0.94978
S          1.90573        0.94122       -0.04945
O          2.67982       -0.12137        0.60328
O          1.13341        1.79745        0.89048
O          1.01747        0.39459       -1.13645
H         -0.44731        0.94274       -1.34300
C          3.05888        2.02764       -0.86408
H          3.71723        2.44465       -0.10180
H          3.62838        1.44075       -1.58479
H          2.49572        2.81717       -1.36189
N          0.50467       -1.37064        2.46024
H          0.57548       -1.63631        3.43703
H         -0.24457       -0.68582        2.38807
H          1.36694       -0.88711        2.21120
N         -0.12756       -2.37767       -0.39860
C         -1.07319       -3.25743        0.33629
H         -0.74427       -3.29286        1.37442
H         -2.06677       -2.81413        0.27988
H         -1.06010       -4.24710       -0.12477
C         -0.56079       -2.15232       -1.80111
H         -1.54208       -1.67879       -1.78859
H          0.16029       -1.49143       -2.27916
H         -0.60684       -3.11653       -2.31102
C          1.26754       -2.88353       -0.32480
H          1.92898       -2.13937       -0.76591
H          1.52051       -3.00705        0.72674
H          1.31970       -3.83342       -0.86127
H         -0.16330       -1.46382        0.07996
