27
1sa1msa1a1ma_28.log	Energy: -951835.8383556
S          1.88512        0.73194        0.25614
O          1.10394        1.89491       -0.15582
O          3.26283        0.92221        0.65111
O          1.15913       -0.00800        1.42160
O          1.81530       -0.28158       -0.95062
H          0.13818       -0.09100        1.25018
H          2.60886       -0.94653       -0.87996
S         -2.05705       -1.09731        0.09999
O         -3.20581       -1.70221        0.75605
O         -1.29502       -0.13555        0.98418
O         -2.35743       -0.41130       -1.19679
H         -1.88101        1.10356       -1.14875
C         -0.89798       -2.39475       -0.29958
H         -0.62967       -2.90390        0.62690
H         -1.39743       -3.08329       -0.98165
H         -0.02273       -1.94494       -0.77047
N          3.92423       -1.80479       -0.65592
H          4.46047       -1.99194       -1.49669
H          3.78878       -2.68274       -0.16533
H          4.47322       -1.19056       -0.05790
N         -1.54020        2.09852       -0.97185
H         -0.55112        2.02233       -0.66655
C         -2.36105        2.73299        0.08712
H         -1.98062        3.73274        0.29667
H         -3.39821        2.78150       -0.24378
H         -2.28665        2.10405        0.97365
H         -1.56877        2.62311       -1.84307
