27
1sa1msa1a1ma_127.log	Energy: -951828.8624897
S         -0.71724       -0.97553        0.31352
O          0.44878       -1.87012        0.41787
O         -0.76405       -0.26697       -0.99999
O         -2.00642       -1.60324        0.64608
O         -0.54330        0.15688        1.43176
H          0.35864        0.54908        1.33456
S          2.93173        0.50528       -0.04933
O          4.30574        0.94114        0.04414
O          1.94577        1.07838        0.87709
O          2.91928       -1.06938        0.09294
H          1.98502       -1.40936        0.23853
C          2.32691        0.76900       -1.70177
H          2.34370        1.84542       -1.87766
H          2.99764        0.25487       -2.39001
H          1.30709        0.38037       -1.75889
N         -3.39876       -0.65310       -1.48173
H         -3.94911        0.18494       -1.11160
H         -3.24911       -1.31591       -0.69862
H         -3.83646       -1.09471       -2.28380
H         -2.41751       -0.35828       -1.67546
N         -4.50560        1.53157       -0.18237
H         -4.60767        2.39842       -0.70226
C         -3.43527        1.66423        0.82778
H         -3.62041        2.46542        1.55030
H         -3.32484        0.71983        1.36426
H         -2.48583        1.85488        0.32385
H         -5.39866        1.36694        0.27336
