35
1sa1msa1ma1eda_203.log	Energy: -1035886.7046234
S         -0.00891       -1.69683       -0.30426
O          0.31086       -0.72505       -1.39570
O         -0.19715       -0.96520        0.98500
O         -1.11677       -2.58631       -0.62233
O          1.27502       -2.61898       -0.13359
H          2.06763       -2.03538       -0.06173
S          3.04322        0.73408        0.18966
O          4.18111        1.61210        0.03722
O          3.23586       -0.71334        0.03998
O          1.92388        1.20653       -0.82539
H          1.30524        0.44020       -1.06837
C          2.28917        1.01228        1.77658
H          3.00969        0.69258        2.53047
H          2.08315        2.07855        1.87133
H          1.37719        0.41275        1.82315
N         -2.91342       -0.57680        0.80993
H         -2.84748       -0.30688       -0.20165
H         -1.92323       -0.73862        1.09956
C         -3.74928       -1.77148        1.04157
H         -3.81370       -1.96765        2.11186
H         -4.74771       -1.60261        0.63680
H         -3.27327       -2.61176        0.53641
H         -3.26057        0.29209        1.24393
H         -3.00201        3.51867       -0.94696
H         -2.09212        3.55764        0.56072
H         -0.82244        2.47947       -1.23761
H         -1.06809        1.40404        0.12940
H         -2.67950        1.27817       -2.32639
H         -1.47504        0.25994       -1.88133
H         -4.17263        2.88410        1.20260
H         -4.39729        1.88742       -0.05802
C         -2.61103        2.88987       -0.13276
C         -1.58657        1.90921       -0.69315
N         -3.69854        2.21718        0.60246
N         -2.21275        0.86877       -1.52174
