30
1sa1msa1a1dma_126.log	Energy: -976476.7850538
S         -1.82971       -0.36416        0.21506
O         -0.84558       -0.81607        1.19203
O         -2.46257        0.93092        0.40505
O         -1.18171       -0.40405       -1.22044
O         -2.93445       -1.45410        0.11385
H         -0.19234       -0.52930       -1.16862
H         -3.86708       -1.01498       -0.07728
S          2.44423       -0.68332       -0.14786
O          3.32743        0.44146       -0.36838
O          1.38832       -0.96334       -1.13146
O          1.80398       -0.61078        1.29770
H          0.81369       -0.52434        1.24517
C          3.42607       -2.15569        0.00575
H          3.93369       -2.30068       -0.94827
H          4.14898       -1.99964        0.80640
H          2.76355       -2.99140        0.22817
N         -5.18058       -0.23100       -0.30511
H         -5.52276       -0.25234       -1.26056
H         -4.90266        0.72338       -0.08598
H         -5.94206       -0.49386        0.31236
N          0.46615        2.01098        0.08281
C          0.78554        2.52644       -1.24084
C          1.23948        2.65548        1.13469
H         -0.52386        2.14666        0.26412
H          1.82759        2.28899       -1.47528
H          0.14888        2.04055       -1.98551
H          0.65371        3.61917       -1.32848
H          2.30007        2.43063        0.98807
H          1.11875        3.75269        1.15478
H          0.94072        2.25463        2.10738
