33
1sa1msa1a1tma_13.log	Energy: -1001162.1933394
S         -2.34408        0.46794       -0.31725
O         -2.00814       -0.57901       -1.45550
O         -1.07168        0.99200        0.19211
O         -3.30361        1.39420       -0.86124
O         -3.01167       -0.36762        0.80872
H         -2.29920       -0.98376        1.34034
S          1.31247       -1.50062       -0.29385
O          1.49575       -1.23628        1.15390
O          1.62003       -0.31053       -1.13034
O         -0.01695       -2.09729       -0.60805
H         -1.22519       -1.14245       -1.18901
C          2.50296       -2.74533       -0.75625
H          3.50068       -2.36253       -0.54065
H          2.30115       -3.64435       -0.17378
H          2.38619       -2.94284       -1.82182
N         -1.34528       -1.87809        2.00937
H         -1.28550       -2.72629        1.45131
H         -1.58556       -2.12767        2.96319
H         -0.40272       -1.47953        1.98992
N          1.59057        2.04459        0.19304
C          3.05426        2.06122       -0.04458
H          3.49226        1.19263        0.44612
H          3.23609        1.99387       -1.11662
H          3.47356        2.98459        0.36108
C          0.90404        3.16908       -0.49081
H          1.12686        3.11468       -1.55678
H         -0.16753        3.05400       -0.33644
H          1.26734        4.11171       -0.07508
C          1.28200        1.99480        1.64623
H          0.20057        1.99875        1.76596
H          1.68468        1.06132        2.04104
H          1.73811        2.86177        2.13015
H          1.25740        1.15109       -0.24253
