30
1sa1msa1a1dma_20.log	Energy: -976502.2997583
S         -2.17748       -0.64451        0.10006
O         -1.44205        0.56684       -0.27209
O         -1.55000       -1.18853        1.44176
O         -3.60170       -0.57899        0.27006
O         -1.86153       -1.76064       -0.96046
H         -0.86757       -1.82206       -1.11052
S          1.64476       -1.24184       -0.19634
O          2.16757        0.06250       -0.67489
O          0.73581       -1.90676       -1.16301
O          1.04533       -1.12652        1.16653
H         -0.54409       -1.19173        1.37978
C          3.05236       -2.31836       -0.03515
H          3.51310       -2.41932       -1.01772
H          3.74636       -1.87063        0.67614
H          2.69590       -3.28294        0.32625
N         -1.36601        3.29268       -1.19616
H         -1.95869        4.01474       -0.79976
H         -1.84206        2.39646       -1.08137
H         -1.28797        3.47567       -2.19150
N          0.92915        2.33377        0.17489
C          0.57224        2.15142        1.59878
C          2.09505        3.21137       -0.04387
H          1.16843        1.40033       -0.22647
H          0.40240        3.12890        2.05444
H         -0.33193        1.54690        1.64445
H          1.38445        1.62938        2.10568
H          1.89181        4.19942        0.37304
H          2.96898        2.77213        0.43851
H          2.27850        3.29129       -1.11540
H          0.09842        2.71828       -0.34795
