39
1sa1msa1dma1tma_58.log	Energy: -1050474.4735431
S          0.95071        0.51821        0.51783
O          1.17515       -0.94571        0.29814
O          0.05435        0.81466        1.64398
O          2.36452        1.10042        0.89306
O          0.49957        1.17811       -0.73551
H          3.08882        0.60385        0.32294
H         -1.15775        1.57275       -0.33903
S         -2.02723       -2.03928       -0.26127
O         -2.95164       -3.06379       -0.70210
O         -2.30803       -0.64583       -0.61840
O         -0.59513       -2.44206       -0.77885
H          0.11292       -1.80232       -0.42427
C         -1.85225       -2.10521        1.51137
H         -2.83405       -1.89478        1.93799
H         -1.52728       -3.10988        1.78157
H         -1.12376       -1.35100        1.81886
N          4.05241       -0.29279       -0.50191
C          4.48923       -1.37022        0.38863
C          5.15294        0.40903       -1.15824
H          3.42199       -0.68185       -1.19892
H          5.07418       -0.94012        1.20665
H          3.60445       -1.85220        0.80844
H          5.10623       -2.11703       -0.12959
H          5.76044        0.91026       -0.39932
H          5.80239       -0.26732       -1.73149
H          4.75014        1.16942       -1.83101
N         -1.91935        2.28413       -0.23350
C         -1.20797        3.55952        0.02985
H         -0.65515        3.45158        0.96304
H         -0.50499        3.74052       -0.78229
H         -1.93919        4.36781        0.10164
C         -2.64997        2.30487       -1.52390
H         -1.93634        2.52397       -2.31851
H         -3.08376        1.31862       -1.68459
H         -3.42423        3.07445       -1.48569
C         -2.79505        1.91144        0.90534
H         -3.28115        0.96790        0.66587
H         -2.16281        1.78410        1.78349
H         -3.53009        2.70604        1.05616
