41
1sa1msa1tma1eda_140.log	Energy: -1085204.9762937
S         -1.79331       -1.72084       -0.17019
O         -2.52484       -0.48533        0.09706
O         -1.76721       -2.19110       -1.55177
O         -0.41933       -1.69470        0.44555
O         -2.59899       -2.82987        0.70348
H         -2.25693       -3.70206        0.46534
S          2.59367       -0.42074       -0.40323
O          2.64881       -0.22218        1.04177
O          2.11890        0.71225       -1.20005
O          1.78764       -1.71822       -0.76239
H          0.85626       -1.74428       -0.31461
C          4.19358       -0.90955       -0.99805
H          4.86821       -0.07211       -0.81781
H          4.51142       -1.79124       -0.44262
H          4.11324       -1.12129       -2.06387
H         -0.71410       -0.20315        3.28467
H         -1.07347        1.23020        4.26012
H         -1.99511        1.35451        1.93781
H         -0.86630        2.68547        2.30828
H          0.81534        1.53078        1.11136
H         -0.13847        0.22335        0.89980
H          1.17236        0.90380        4.61432
H          1.51613        0.56873        3.05660
C         -0.48991        0.86796        3.40706
C         -0.95163        1.60452        2.15228
N          0.92586        1.13635        3.65966
N         -0.15153        1.24381        0.97340
N         -1.03174        2.03554       -1.40513
C         -0.15750        3.19526       -1.67328
H         -0.23831        3.90123       -0.84423
H          0.87114        2.83948       -1.74880
H         -0.45935        3.68370       -2.60401
C         -0.88071        0.99629       -2.45107
H          0.15261        0.64834       -2.44390
H         -1.54936        0.16408       -2.23475
H         -1.12889        1.43064       -3.42437
C         -2.44580        2.42381       -1.21925
H         -3.00679        1.53112       -0.93991
H         -2.50611        3.16099       -0.41609
H         -2.83765        2.85467       -2.14529
H         -0.67772        1.64184       -0.41397
