36
1sa1msa2dma_37.log	Energy: -1025822.4395996
S         -1.85837       -0.81969       -0.92062
O         -1.48642       -0.77545        0.53433
O         -0.47187       -0.86049       -1.71515
O         -2.57074       -2.01089       -1.32649
O         -2.51055        0.47685       -1.27944
H         -2.29347        1.53018       -0.21099
S          2.26919        0.82559       -0.37434
O          2.95780       -0.33660       -0.95075
O          1.94502        0.63123        1.07582
O          1.06085        1.25143       -1.14504
H          0.05855       -0.02699       -1.56652
C          3.38523        2.21612       -0.44318
H          4.28756        1.95307        0.10911
H          3.61679        2.40622       -1.49137
H          2.89672        3.08077        0.00669
N          0.87871       -1.91154        1.17467
C          0.85156       -2.44150        2.54987
C          1.35891       -2.87398        0.15665
H         -0.08177       -1.57309        0.91297
H          1.85583       -2.75761        2.83682
H          0.50861       -1.65619        3.22397
H          0.16740       -3.29028        2.59636
H          2.38741       -3.15447        0.38610
H          0.70700       -3.74926        0.16558
H          1.32149       -2.38807       -0.81668
H          1.44995       -1.03529        1.15141
N         -2.26106        2.23483        0.60997
C         -0.86294        2.39247        1.08195
C         -3.19270        1.72986        1.64498
H         -2.60062        3.12103        0.23924
H         -0.50726        1.42493        1.43364
H         -0.23795        2.68068        0.23712
H         -0.82983        3.13645        1.88048
H         -2.84651        0.73691        1.93299
H         -3.20012        2.40725        2.50108
H         -4.18958        1.64984        1.21099
