39
1sa1msa1dma1tma_20.log	Energy: -1050485.8755031
S          2.88651        0.11721       -0.03042
O          2.37478       -0.27934       -1.34251
O          2.99632        1.55857        0.22258
O          2.19630       -0.60432        1.07865
O          4.41848       -0.45139       -0.02932
H          4.89584        0.00008        0.67893
S         -2.80470       -0.32120       -0.01505
O         -2.99537        1.16138       -0.04093
O         -2.60455       -0.87606        1.33214
O         -1.73070       -0.73884       -0.96961
C         -4.33078       -0.98620       -0.65594
H         -5.13570       -0.68296        0.01373
H         -4.48717       -0.58409       -1.65678
H         -4.24352       -2.07258       -0.68413
N          0.30301       -2.27772        0.07532
C          0.92688       -3.07946       -0.99904
C         -0.24777       -3.07267        1.19305
H          1.02573       -1.61658        0.45591
H          0.17190       -3.72668       -1.44881
H          1.34279       -2.39127       -1.73427
H          1.73053       -3.68146       -0.57146
H         -0.95091       -3.80873        0.79911
H          0.57196       -3.57564        1.70862
H         -0.77945       -2.40012        1.86577
H         -0.45965       -1.69002       -0.33138
N         -0.66092        2.45213        0.02167
C          0.08281        2.09050       -1.21610
H          0.03343        1.00959       -1.34409
H         -0.40123        2.57868       -2.06294
H          1.12311        2.40327       -1.11598
C         -0.80938        3.91577        0.17056
H         -1.31711        4.31412       -0.70841
H         -1.40269        4.12444        1.06151
H          0.18025        4.36741        0.26627
C         -0.05296        1.83985        1.23375
H         -0.68157        2.07751        2.09238
H         -0.01835        0.75980        1.10005
H          0.96552        2.21034        1.35633
H         -1.62246        2.02109       -0.05736
