27
1sa1msa1a1ma_96.log	Energy: -951830.3164919
S          1.73451       -1.19508       -0.03773
O          1.64483       -0.87511       -1.44833
O          2.77428       -0.52057        0.74902
O          0.40764       -1.07628        0.68148
O          2.07483       -2.77988        0.00195
H          2.30677       -3.01678        0.91007
S         -2.60353        0.12655       -0.01534
O         -1.92847        1.27022       -0.64528
O         -2.77549        0.21719        1.42961
O         -1.89223       -1.21469       -0.41513
H         -0.93956       -1.24162       -0.03928
C         -4.16706       -0.12804       -0.81057
H         -4.76695        0.76107       -0.61500
H         -3.99381       -0.25491       -1.87865
H         -4.63033       -1.01314       -0.37578
N          0.17539        1.65730        1.25977
H         -0.13695        2.02347        2.15433
H         -0.55575        1.81611        0.54942
H          1.12590        2.07432        0.94154
H          0.28497        0.62606        1.31604
N          2.60991        2.39976        0.26581
H          3.17039        3.15879        0.63996
C          2.46341        2.52917       -1.19378
H          3.42437        2.61794       -1.71205
H          1.95432        1.64144       -1.57666
H          1.85756        3.40949       -1.42526
H          3.08515        1.52113        0.48095
