35
1sa1msa1ma1eda_210.log	Energy: -1035883.7803477
S         -0.23076        1.94833        0.20440
O         -1.25757        2.66188        0.95211
O          0.71320        1.14126        1.05987
O         -0.94207        0.87187       -0.71125
O          0.58736        2.79158       -0.70579
H         -1.98426        0.88857       -0.54822
H          1.96895        2.02682       -0.96043
S          1.37663       -1.98602       -0.02914
O          2.56288       -1.20426       -0.43548
O          0.41924       -2.30215       -1.07510
O          0.70918       -1.31941        1.20796
H          0.64269       -0.26855        1.13642
C          1.95170       -3.49763        0.70435
H          2.66555       -3.25496        1.49047
H          1.08569       -4.02239        1.10754
H          2.42241       -4.07910       -0.08867
N          2.88919        1.49034       -0.95116
H          2.66769        0.47943       -0.84100
C          3.70647        1.94759        0.19703
H          4.63145        1.37281        0.24301
H          3.92124        3.00987        0.08298
H          3.11277        1.78705        1.09612
H          3.36596        1.62256       -1.83998
H         -4.10342       -1.24836       -1.47783
H         -4.59770       -2.19614       -0.07248
H         -5.20882        0.00751        0.47764
H         -3.70501       -0.28460        1.37680
H         -3.96732        1.27199       -1.09827
H         -3.45452        1.79832        0.36906
H         -2.38370       -2.83106       -0.66279
H         -1.80952       -1.32642       -0.48490
C         -3.87750       -1.44410       -0.41277
C         -4.12962       -0.16428        0.37653
N         -2.53918       -1.95947       -0.17003
N         -3.47116        0.99400       -0.25576
