26
1sa1msa1dma_42.log	Energy: -940993.5609878
S          1.98282       -0.75640        0.02985
O          1.16083       -1.87076        0.56435
O          2.61096        0.11534        1.00921
O          3.22747       -1.47811       -0.71531
O          1.23918       -0.02187       -1.02997
H          2.88167       -2.21359       -1.23909
H          0.73963        1.40984       -0.46485
S         -2.06757       -0.51733       -0.03070
O         -2.32935        0.01136       -1.36044
O         -1.40729        0.38058        0.92091
O         -1.30342       -1.88699       -0.10070
H         -0.31718       -1.82874        0.16589
C         -3.60581       -1.07551        0.66529
H         -4.26493       -0.20947        0.73289
H         -4.02684       -1.82458       -0.00527
H         -3.41009       -1.49719        1.65054
N          0.63251        2.44209       -0.24802
C          0.67178        2.66487        1.22060
C         -0.58666        2.95660       -0.91595
H          1.46118        2.86151       -0.66963
H         -0.20401        2.18347        1.65171
H          1.57373        2.19218        1.60922
H          0.66541        3.73853        1.41789
H         -1.44486        2.44787       -0.48054
H         -0.65570        4.03541       -0.76540
H         -0.53264        2.71768       -1.97772
