33
1sa1msa1a1tma_35.log	Energy: -1001155.2477759
S          1.73424       -0.60276       -0.56321
O          0.77390       -1.12765        0.45860
O          2.47844       -1.64415       -1.25979
O          1.09538        0.41824       -1.42051
O          2.78499        0.25389        0.30993
H          0.22190        1.52463       -0.54634
H          3.44260       -0.39457        0.72205
S         -2.59675       -0.80927        0.13439
O         -2.34509        0.23834       -0.85554
O         -2.71718       -0.36774        1.52113
O         -1.54778       -1.96565       -0.00376
H         -0.57997       -1.63473        0.14855
C         -4.05824       -1.70879       -0.32454
H         -3.92328       -2.09416       -1.33465
H         -4.20236       -2.51715        0.39165
H         -4.88862       -1.00335       -0.28420
N          4.38678       -1.75645        1.09352
H          4.06621       -2.28769        1.89619
H          5.39588       -1.67330        1.14623
H          4.14547       -2.28050        0.25332
N          0.03344        2.37748        0.04735
C          1.27593        3.18385       -0.05771
H          2.10835        2.57672        0.29922
H          1.44095        3.43455       -1.10560
H          1.16452        4.09199        0.53917
C         -1.14450        3.08981       -0.50246
H         -0.93833        3.35363       -1.54032
H         -1.99922        2.41569       -0.46338
H         -1.32175        3.99235        0.08732
C         -0.19353        1.91616        1.44311
H         -1.10266        1.31567        1.48214
H          0.65682        1.30396        1.74405
H         -0.28725        2.79297        2.08872
