36
1sa1msa2dma_65.log	Energy: -1025813.9383775
S         -1.17044       -0.61284       -0.76097
O         -1.02454       -1.62133        0.32804
O         -1.06794        0.77870       -0.17746
O         -0.25133       -0.83404       -1.86973
O         -2.63613       -0.71402       -1.30324
H         -3.31351       -0.29588       -0.61547
S          2.33883        1.41017        0.06475
O          2.94271        0.82166       -1.12171
O          2.20771        0.49748        1.22113
O          0.98560        2.10164       -0.22934
H          0.11438        1.46257       -0.23395
C          3.30296        2.81149        0.57617
H          4.30820        2.44787        0.79031
H          3.31930        3.52725       -0.24546
H          2.84510        3.24411        1.46494
N          1.61661       -2.12914        0.49880
C          1.88002       -3.09307        1.58354
C          2.23412       -2.47579       -0.80215
H          0.57221       -2.01845        0.38543
H          2.95590       -3.17859        1.74500
H          1.39590       -2.73728        2.49310
H          1.46892       -4.06490        1.30642
H          3.31586       -2.54420       -0.67639
H          1.82801       -3.42976       -1.14150
H          1.98094       -1.69384       -1.51697
H          1.93606       -1.18282        0.78742
N         -4.25258        0.39701        0.38533
C         -4.20741        1.83229        0.08622
C         -3.79169        0.08502        1.74310
H         -5.20074        0.05293        0.26340
H         -3.16266        2.15089        0.10514
H         -4.60112        2.00424       -0.91793
H         -4.78493        2.42616        0.80775
H         -2.74588        0.38766        1.83133
H         -4.38406        0.60276        2.50995
H         -3.84683       -0.99326        1.90511
