39
1sa1msa1dma1tma_129.log	Energy: -1050462.2444566
S          0.91239       -0.46316       -0.50804
O         -0.23178       -0.85115       -1.35002
O          1.47592        0.86663       -0.77189
O          0.41202       -0.47199        1.01484
O          1.99054       -1.49819       -0.51009
H         -0.57082       -0.40464        1.06001
H          3.29193       -0.81323       -0.12727
S         -3.35063       -0.59995        0.25836
O         -4.20352        0.54684        0.51465
O         -2.26987       -0.90277        1.20124
O         -2.77335       -0.51030       -1.20519
H         -1.76304       -0.56805       -1.22191
C         -4.38078       -2.04415        0.13861
H         -4.85853       -2.18050        1.10921
H         -5.12654       -1.86680       -0.63618
H         -3.74982       -2.89717       -0.10961
N         -1.47683        2.05531        0.15529
C         -1.34691        2.61240       -1.18213
C         -0.61825        2.71180        1.12550
H         -2.44461        2.11434        0.45636
H         -0.33595        2.41575       -1.55122
H         -2.05640        2.11710       -1.85036
H         -1.52896        3.70167       -1.22253
H          0.42594        2.54108        0.84484
H         -0.78427        3.80234        1.19545
H         -0.77994        2.27274        2.11462
N          4.18840       -0.31168        0.21090
C          3.79962        0.45004        1.42454
H          3.03435        1.17233        1.14046
H          3.37994       -0.24473        2.15271
H          4.68004        0.95005        1.83589
C          5.18510       -1.36219        0.50930
H          4.77670       -2.03131        1.26740
H          5.38393       -1.92887       -0.40085
H          6.10749       -0.90256        0.87288
C          4.62529        0.58802       -0.88327
H          4.86207       -0.01591       -1.76001
H          3.79545        1.25458       -1.11892
H          5.50776        1.14815       -0.56334
