33
1sa1msa1ma1dma_73.log	Energy: -1001153.4755198
S         -1.89390       -1.21504       -0.13543
O         -1.56414       -0.28380       -1.21076
O         -0.70568       -1.95937        0.38500
O         -2.71967       -0.66563        0.94725
O         -2.78766       -2.35360       -0.86902
H         -3.14857       -2.93444       -0.18557
S          2.37734       -0.63739        0.07799
O          3.57063       -0.03904        0.64269
O          1.79068       -0.01755       -1.11440
O          1.29375       -0.69015        1.22277
H          0.44297       -1.18259        0.90788
C          2.65883       -2.35259       -0.29636
H          3.38460       -2.39181       -1.10908
H          3.05039       -2.83530        0.59876
H          1.70625       -2.78979       -0.60026
N         -1.66141        2.07744        1.34147
H         -2.32019        2.83597        1.48758
C         -0.75080        1.96000        2.49021
H         -1.26673        1.73154        3.42950
H         -0.02966        1.16214        2.29454
H         -0.19668        2.89462        2.61720
H         -2.21194        1.21805        1.25529
N         -0.06638        2.08702       -0.91780
C         -0.79263        2.51838       -2.12873
C          1.08532        2.93808       -0.56068
H         -0.74635        2.07063       -0.08583
H         -0.10446        2.54092       -2.97554
H         -1.58957        1.79943       -2.31374
H         -1.20653        3.51481       -1.96150
H          1.81371        2.93183       -1.37204
H          0.73352        3.95486       -0.37468
H          1.55368        2.53647        0.33809
H          0.26752        1.12025       -1.05220
