33
1sa1msa1ma1dma_163.log	Energy: -1001149.5511132
S          0.38995       -0.70565       -0.62163
O         -0.79875       -1.11423       -1.39585
O          1.65745       -0.75446       -1.35386
O          0.21710        0.86973       -0.30927
O          0.46303       -1.37844        0.70263
H         -0.69420        1.02589        0.03712
H          2.02129       -1.21435        1.26109
S         -3.54313        0.38747        0.10855
O         -4.36623        1.16998       -0.79047
O         -2.31199        1.00248        0.62888
O         -3.19768       -1.01748       -0.51204
H         -2.23991       -1.06742       -0.85571
C         -4.52343       -0.12151        1.49998
H         -4.84648        0.78590        2.01082
H         -5.38251       -0.67649        1.12335
H         -3.90613       -0.74099        2.14943
N          3.05861       -1.05931        1.37439
H          3.25939       -0.08845        0.91515
C          3.79587       -2.11602        0.64573
H          4.86824       -1.92488        0.70622
H          3.56698       -3.09262        1.07279
H          3.46164       -2.08277       -0.39165
H          3.29256       -1.03923        2.36372
N          3.41736        1.26501       -0.00558
C          4.72284        1.39859       -0.64803
C          2.98349        2.48391        0.67592
H          2.72431        1.00854       -0.71015
H          5.49471        1.55316        0.11342
H          4.95276        0.48185       -1.19709
H          4.76150        2.24277       -1.35054
H          3.66238        2.70088        1.50757
H          2.97203        3.35430        0.00551
H          1.97453        2.33435        1.06489
