41
1sa1msa1tma1eda_50.log	Energy: -1085218.4086485
S          2.61186       -0.24777        0.05039
O          2.93098        1.16149        0.28937
O          2.66131       -1.12247        1.22337
O          1.37560       -0.44208       -0.76252
O          3.74435       -0.80373       -0.99200
H          4.61198       -0.64226       -0.59739
S         -3.01709        0.21634       -0.10936
O         -1.79256       -0.17002        0.65095
O         -3.51460       -0.85669       -0.98443
O         -2.81732        1.52893       -0.79602
C         -4.29049        0.50979        1.11170
H         -4.47472       -0.42532        1.64152
H         -3.94402        1.28135        1.79967
H         -5.19089        0.83520        0.58995
H          1.61344        2.52915       -1.31325
H          0.14504        3.29474       -1.96825
H          1.58036        4.80821       -0.49394
H         -0.10023        4.66848        0.04716
H          2.08402        3.05754        1.19384
H          1.23859        4.26490        1.95180
H          0.20023        0.96186       -0.64174
H         -0.04176        2.00242        0.60719
C          0.64636        2.96511       -1.05716
C          0.83919        4.11674       -0.06926
N         -0.15876        1.90121       -0.41128
N          1.19910        3.55875        1.22847
H         -1.18606        1.91244       -0.62507
N          0.05483       -2.72628        0.03725
C         -0.29506       -2.70603        1.48295
H          0.58826       -2.38428        2.03568
H         -1.10433       -1.98764        1.61483
H         -0.59650       -3.71288        1.78169
C         -1.11207       -3.06851       -0.81770
H         -1.91408       -2.34764       -0.65078
H         -0.80028       -3.02480       -1.86199
H         -1.43941       -4.08075       -0.56920
C          1.21385       -3.61466       -0.23287
H          1.49148       -3.51590       -1.28256
H          2.04538       -3.29629        0.39582
H          0.92807       -4.64532       -0.01196
H          0.37029       -1.76424       -0.21643
