40
1sa1msa2eda_184.log	Energy: -1095281.7744825
S         -1.10949       -1.78454       -1.13016
O         -0.86123       -2.57591       -2.31746
O          0.13600       -1.33855       -0.41137
O         -1.82864       -0.42264       -1.54886
O         -2.03463       -2.39002       -0.13668
H         -1.17365        0.37990       -1.60809
H         -1.69715       -1.92940        1.34874
S          2.87645        0.27583        0.08869
O          2.64720       -0.13718        1.46876
O          2.25051        1.53026       -0.33969
O          2.52032       -0.87592       -0.91512
H          1.52403       -1.14789       -0.81271
C          4.62427        0.38590       -0.20759
H          5.00233        1.18443        0.43134
H          5.07804       -0.56917        0.05495
H          4.78347        0.62142       -1.25937
H         -0.07390       -0.92458        3.67274
H          0.53104       -1.38903        2.05227
H          0.34396        1.13131        2.38247
H         -0.54519        0.48553        1.00839
H         -1.70363        1.60251        3.40988
H         -2.30290        1.50515        1.85745
H         -1.63169       -2.49124        2.93884
H         -2.29000       -0.96834        2.62528
C         -0.27926       -0.90988        2.59873
C         -0.51637        0.51716        2.10078
N         -1.55230       -1.65175        2.37132
N         -1.80264        1.00425        2.59898
H         -2.74436        3.04453       -1.84593
H         -2.62647        3.93919       -0.32827
H         -0.42288        3.81438       -1.15111
H         -0.49775        2.66943        0.18735
H         -0.43006        2.02874       -2.65982
H          0.58910        1.56727       -1.45940
H         -4.01268        2.06889        0.01029
H         -2.87793        1.01202       -0.49196
C         -2.37665        2.98681       -0.80803
C         -0.85771        2.86002       -0.82717
N         -3.01072        1.91483       -0.03674
N         -0.39077        1.75324       -1.68168
