29
1sa1msa1tma_08.log	Energy: -965658.8306747
S          0.99458       -1.74114       -0.08650
O          0.78840       -3.15464       -0.30579
O          0.22827       -0.84004       -1.01217
O          0.46617       -1.34628        1.39392
O          2.40214       -1.27582       -0.03245
H         -0.50141       -1.18422        1.38572
H          2.26363        0.32621       -0.08372
S         -2.41955        0.47396        0.06809
O         -1.70811        1.74615       -0.01737
O         -2.13331       -0.36282        1.23880
O         -2.22160       -0.36803       -1.24473
H         -1.24656       -0.69484       -1.24974
C         -4.16741        0.75762       -0.01808
H         -4.38038        1.30314       -0.93692
H         -4.67136       -0.20810       -0.00373
H         -4.43486        1.34982        0.85747
N          2.28412        1.38737       -0.02074
C          1.50296        1.77269        1.18368
H          0.45105        1.55103        1.00458
H          1.86426        1.19312        2.03304
H          1.63274        2.84310        1.36081
C          3.71772        1.73294        0.11458
H          4.11278        1.24494        1.00589
H          4.25138        1.36681       -0.76283
H          3.82675        2.81657        0.19815
C          1.68594        1.94518       -1.25931
H          2.21950        1.53946       -2.11902
H          0.64043        1.64327       -1.30220
H          1.77173        3.03424       -1.23456
