36
1sa1msa1ma1tma_113.log	Energy: -1025802.6724364
S         -0.91707       -1.17243       -0.44366
O          0.22973       -1.53694       -1.29383
O         -2.10781       -2.00611       -0.57770
O         -0.46295       -1.38013        1.08143
O         -1.24882        0.28730       -0.56684
H          0.44310       -1.00268        1.20872
H         -2.68857        0.46241       -0.11246
S          3.11021       -0.49991        0.30898
O          3.89690       -1.69679        0.53275
O          1.98285       -0.24743        1.22513
O          2.57200       -0.43746       -1.17834
H          1.66343       -0.87250       -1.25264
C          4.15925        0.92606        0.30657
H          4.60952        0.97806        1.29889
H          4.92809        0.76671       -0.45016
H          3.55742        1.81726        0.09046
N          2.08332        3.45519       -0.36999
H          1.99853        4.17612        0.33833
C          0.89021        2.60517       -0.40235
H         -0.05132        3.14371       -0.58477
H          1.00076        1.85018       -1.18276
H          0.80307        2.06407        0.54233
H          2.21696        3.92516       -1.25878
N         -3.70098        0.56465        0.25267
C         -3.76772       -0.21085        1.51688
H         -3.54204       -1.25288        1.28976
H         -3.01207        0.17308        2.20293
H         -4.76499       -0.10945        1.95232
C         -3.93178        2.00840        0.47207
H         -3.19969        2.37562        1.19213
H         -3.80177        2.53395       -0.47449
H         -4.94355        2.16725        0.85315
C         -4.59636       -0.00078       -0.78485
H         -4.46635        0.56647       -1.70716
H         -4.30073       -1.03618       -0.95508
H         -5.63324        0.06460       -0.44534
