33
1sa1msa1a1tma_28.log	Energy: -1001156.6453650
S          0.72877        0.94283        0.59871
O          0.46503       -0.34699       -0.12262
O         -0.34858        1.32489        1.50641
O          2.08446        0.86748        1.21776
O          0.87948        2.05153       -0.51265
H          2.92997       -0.11403        0.41024
H         -0.07065        2.41350       -0.78385
S         -3.09001       -0.87302       -0.16950
O         -4.15495       -1.81547       -0.44227
O         -2.99582        0.34080       -0.98203
O         -1.72999       -1.67644       -0.26475
H         -0.91970       -1.07412       -0.22189
C         -3.14838       -0.38521        1.54126
H         -4.07458        0.17358        1.68226
H         -3.15281       -1.29158        2.14689
H         -2.27390        0.23543        1.75321
N         -1.50768        2.87959       -1.07002
H         -2.09075        2.03796       -1.05343
H         -1.67273        3.36344       -1.94644
H         -1.81454        3.48090       -0.31158
N          3.52873       -0.78123       -0.18985
C          3.25675       -0.43109       -1.60691
H          2.19462       -0.58619       -1.79459
H          3.49289        0.62283       -1.75664
H          3.87083       -1.05820       -2.25805
C          4.94031       -0.53882        0.17914
H          5.17813        0.50742       -0.01534
H          5.06984       -0.74477        1.24204
H          5.59159       -1.18800       -0.41117
C          3.09011       -2.16137        0.12726
H          3.27116       -2.35151        1.18566
H          2.02107       -2.22874       -0.07393
H          3.65235       -2.87086       -0.48500
