28
1sa1msa1eda_106.log	Energy: -975727.5835834
S         -1.33902        1.45029        0.02299
O         -2.70236        1.27391       -0.46257
O         -0.29945        1.09639       -0.97489
O         -1.08324        3.03477        0.23847
O         -1.08445        0.81475        1.33894
H         -1.72670        3.36521        0.88017
H         -0.64225       -0.82757        1.21236
S          2.69702       -0.29482        0.01515
O          1.94010       -1.47045       -0.45976
O          2.72539       -0.10132        1.45429
O          2.21129        0.98639       -0.74103
H          1.18619        1.06613       -0.78384
C          4.34972       -0.40103       -0.61867
H          4.81852       -1.26130       -0.14046
H          4.29853       -0.53169       -1.69884
H          4.87091        0.51911       -0.35518
H         -2.95991       -1.06613        1.01895
H         -3.18862       -2.81894        0.85162
H         -1.32892       -3.00778       -0.69167
H         -1.32678       -1.26792       -1.00863
H         -0.54487       -2.47508        1.57202
H          0.46939       -1.79601        0.41422
H         -4.78933       -1.92221       -0.54199
H         -3.78052       -0.78462       -1.14971
C         -2.92560       -1.90426        0.30705
C         -1.50699       -2.02795       -0.24573
N         -3.83120       -1.74607       -0.81957
N         -0.48946       -1.79033        0.82060
