36
1sa1msa2dma_201.log	Energy: -1025799.6100961
S          2.03089       -0.57677       -0.51163
O          1.16047       -1.75199       -0.68649
O          3.22334       -0.56733       -1.38125
O          1.20459        0.70380       -1.00830
O          2.38579       -0.32290        0.91103
H          0.29524        0.67091       -0.61941
H          3.94369        0.41208        0.93266
S         -2.03656       -0.81454        0.20237
O         -2.87562       -1.09490       -0.94893
O         -1.21339        0.40597        0.15588
O         -1.10254       -2.04522        0.53889
H         -0.20922       -1.96408        0.07405
C         -3.02972       -0.76402        1.66456
H         -3.76416        0.03750        1.50164
H         -3.52021       -1.73224        1.76805
H         -2.37827       -0.55793        2.51328
N         -5.09720        1.46691        0.44289
C         -5.92953        0.56739       -0.34711
C         -4.24333        2.30762       -0.38866
H         -5.68586        2.05333        1.02464
H         -5.28211       -0.12803       -0.89006
H         -6.57562       -0.01591        0.31548
H         -6.56372        1.09137       -1.08228
H         -3.56750        1.67113       -0.96673
H         -4.80971        2.93540       -1.09756
H         -3.63118        2.95496        0.24476
N          4.75659        0.75927        0.36505
C          6.05152        0.34189        0.93200
C          4.59667        2.21187        0.13807
H          4.53429        0.25294       -0.52120
H          6.19634        0.82517        1.89935
H          6.04470       -0.74061        1.05903
H          6.85491        0.62921        0.25207
H          4.69315        2.73779        1.08878
H          5.36065        2.55597       -0.56045
H          3.60494        2.38085       -0.28328
