33
1sa1msa1a1tma_27.log	Energy: -1001155.3277457
S          1.98573        0.08994       -0.45923
O          1.09156        0.15536       -1.60112
O          2.05165        1.27055        0.40092
O          1.66131       -1.16894        0.42048
O          3.41722       -0.27032       -0.96541
H          0.66585       -1.14694        0.71164
H          4.08345       -0.16764       -0.18159
S         -1.86663       -1.60760        0.20686
O         -2.72619       -2.53203        0.93288
O         -0.75581       -1.02220        1.04442
O         -2.59793       -0.48343       -0.46657
H         -2.01915        0.91782       -0.13035
C         -1.05968       -2.50065       -1.11033
H         -0.49294       -3.32061       -0.66764
H         -1.83793       -2.88854       -1.76810
H         -0.40111       -1.81417       -1.64508
N          4.90799        0.08802        1.16184
H          4.41885        0.87365        1.58403
H          5.88857        0.32963        1.06589
H          4.83230       -0.70261        1.79442
N         -1.86501        1.96212        0.04926
C         -3.22781        2.51153        0.23213
H         -3.82268        2.27609       -0.65062
H         -3.68132        2.03886        1.10352
H         -3.16837        3.59320        0.37507
C         -1.04124        2.12175        1.27337
H         -1.48581        1.52672        2.07089
H         -0.03082        1.76485        1.07527
H         -1.01820        3.18066        1.54524
C         -1.19646        2.52211       -1.15011
H         -0.25342        1.99690       -1.30462
H         -1.84330        2.36274       -2.01364
H         -1.02374        3.59056       -0.99927
