30
1sa1msa1a1dma_46.log	Energy: -976498.0257913
S          1.70613       -1.28147       -0.08652
O          2.30492       -0.59329        1.06469
O          0.51977       -2.09106        0.29762
O          1.49057       -0.43412       -1.26504
O          2.79853       -2.36062       -0.61143
H          2.95097       -3.00179        0.09603
S         -2.35995       -0.22342       -0.00935
O         -1.66149        0.84105       -0.72806
O         -2.37820       -0.11837        1.44762
O         -1.84737       -1.63234       -0.46855
H         -0.87550       -1.80698       -0.18653
C         -4.02766       -0.33286       -0.60899
H         -4.51572        0.60975       -0.36005
H         -3.99539       -0.48170       -1.68782
H         -4.51819       -1.16753       -0.10919
N          0.23137        1.33484        2.19487
H          0.29359        1.88599        3.04413
H          0.91312        0.57687        2.25471
H         -0.69374        0.90382        2.16493
N          1.01769        2.15480       -0.33400
C          2.45401        2.44738       -0.14095
C          0.26577        3.22658       -1.01230
H          0.94450        1.26044       -0.85304
H          2.55482        3.35021        0.46464
H          2.90625        1.59476        0.36695
H          2.92919        2.59509       -1.11208
H          0.32824        4.13865       -0.41535
H          0.69926        3.40491       -1.99820
H         -0.77076        2.90914       -1.11071
H          0.60049        1.94256        0.62822
