29
1sa1msa1tma_22.log	Energy: -965656.5488558
S         -0.63795       -0.92030       -0.10772
O          0.50795       -1.43794       -0.88088
O         -1.76094       -1.83929        0.05091
O         -0.12003       -0.66726        1.38835
O         -1.08030        0.41933       -0.61664
H          0.74432       -0.19092        1.35440
H         -2.56505        0.57800       -0.29266
S          3.31184        0.27156        0.10551
O          4.28161       -0.70044        0.56823
O          2.22718        0.65299        1.02361
O          2.68668       -0.14732       -1.27987
H          1.81545       -0.65694       -1.15367
C          4.15887        1.75208       -0.38897
H          4.65819        2.14111        0.49876
H          4.88782        1.48527       -1.15385
H          3.42618        2.46261       -0.76944
N         -3.60901        0.67237       -0.03577
C         -3.72293        0.30959        1.39918
H         -3.37177       -0.71547        1.51890
H         -3.08423        0.97547        1.98034
H         -4.76402        0.40945        1.71586
C         -3.98828        2.07943       -0.28746
H         -3.36835        2.72733        0.33297
H         -3.81103        2.30942       -1.33851
H         -5.04370        2.22625       -0.04555
C         -4.35197       -0.27672       -0.90011
H         -4.19677        0.00448       -1.94227
H         -3.94175       -1.27266       -0.73167
H         -5.41593       -0.23710       -0.65348
