33
1sa1msa1ma1dma_65.log	Energy: -1001154.9371776
S          1.64983       -1.46870       -0.12552
O          1.81752       -1.00003        1.26236
O          0.43848       -2.31896       -0.29737
O          1.79000       -0.41997       -1.13400
O          2.89137       -2.46909       -0.42342
H          2.82005       -3.22489        0.17527
S         -2.36035       -0.30059        0.10179
O         -3.09482        0.78352       -0.53177
O         -1.39563        0.03204        1.14664
O         -1.64871       -1.10864       -1.04399
H         -0.80890       -1.61037       -0.72330
C         -3.51961       -1.47508        0.76594
H         -4.07181       -0.97492        1.56231
H         -4.19042       -1.78336       -0.03568
H         -2.95837       -2.32310        1.15913
N         -0.18769        1.85421       -1.40241
H          0.07155        0.92393       -1.72849
C          0.40415        2.87048       -2.27590
H          0.03042        2.83161       -3.30611
H          0.19908        3.86693       -1.87380
H          1.48789        2.72936       -2.30329
H         -1.20419        1.90133       -1.41592
N          1.02588        1.69249        1.07572
C          0.32288        2.42822        2.14179
C          2.38984        2.18043        0.78847
H          1.09357        0.68553        1.31117
H          0.21790        3.47406        1.84586
H         -0.65921        1.97615        2.27317
H          0.89380        2.36565        3.07036
H          2.33633        3.22455        0.47288
H          3.00851        2.09290        1.68319
H          2.80289        1.56292       -0.00981
H          0.46265        1.74809        0.16026
