33
1sa1msa1ma1dma_195.log	Energy: -1001139.5178266
S         -1.24223       -0.41394       -0.64432
O         -0.10101       -0.21618       -1.55320
O         -2.41276       -1.07935       -1.21091
O         -0.75907       -1.40127        0.52242
O         -1.62302        0.86720        0.04173
H          0.14402       -1.13782        0.83235
H         -3.04766        0.74127        0.50909
S          2.88538       -0.85220        0.24989
O          3.54101       -2.13773        0.36967
O          1.72496       -0.57987        1.11748
O          2.44993       -0.61586       -1.25308
H          1.45990       -0.46632       -1.34446
C          4.07109        0.44193        0.48587
H          4.46310        0.32735        1.49761
H          4.86460        0.29141       -0.24701
H          3.57899        1.41383        0.35117
N          2.39607        3.28792        0.12475
H          2.45860        3.87867        0.94712
C          1.06030        2.69274        0.01223
H          0.23689        3.41969       -0.00041
H          0.99912        2.10112       -0.90364
H          0.89667        2.00278        0.84303
H          2.59590        3.87718       -0.67639
N         -4.08035        0.55976        0.80640
C         -4.13385       -0.76304        1.47934
C         -4.93238        0.64726       -0.40454
H         -4.33550        1.29249        1.46671
H         -3.82142       -1.51416        0.75366
H         -3.43159       -0.75961        2.31286
H         -5.14857       -0.95728        1.83129
H         -4.55968       -0.08927       -1.11702
H         -5.97323        0.44913       -0.14175
H         -4.83181        1.64523       -0.83162
