39
1sa1msa1dma1tma_126.log	Energy: -1050462.6405029
S         -1.42306       -0.44519       -0.71708
O         -2.64300       -0.81794       -1.45637
O         -0.21104       -0.31352       -1.54210
O         -1.65361        0.74085        0.15320
O         -1.20038       -1.69007        0.27016
H         -3.34753        0.74654        0.52075
H         -0.29841       -1.63031        0.67820
S          2.49207       -1.67797        0.28890
O          3.12662       -2.96769        0.45320
O          1.31261       -1.35937        1.11193
O          2.09577       -1.51372       -1.23553
H          1.22263       -1.03513       -1.34889
C          3.68266       -0.38945        0.53187
H          4.02014       -0.46194        1.56696
H          4.51003       -0.57728       -0.15322
H          3.19752        0.57779        0.33138
N         -4.28329        0.29742        0.36371
C         -5.36005        1.29327        0.21172
C         -4.50226       -0.72408        1.41317
H         -4.06481       -0.18930       -0.53100
H         -5.49242        1.82615        1.15430
H         -5.07972        1.99590       -0.57275
H         -6.28808        0.78722       -0.05817
H         -4.59325       -0.23020        2.38135
H         -5.41317       -1.28110        1.18983
H         -3.64314       -1.39653        1.41486
N          2.18919        2.46102        0.08003
C          1.19890        2.44291        1.14533
H          0.44099        1.68440        0.93852
H          1.68528        2.20328        2.09679
H          0.68886        3.41971        1.25441
C          3.20521        3.46860        0.31999
H          3.69527        3.28286        1.28146
H          3.96524        3.42778       -0.46646
H          2.78577        4.49303        0.34175
C          1.56474        2.63521       -1.22246
H          2.32579        2.57115       -2.00657
H          0.82909        1.84529       -1.38900
H          1.05747        3.61498       -1.31333
