33
1sa1msa1ma1dma_131.log	Energy: -1001153.2009404
S         -1.72772        1.32824        0.23225
O         -1.37018        0.93927       -1.14965
O         -2.16515        0.21876        1.07099
O         -0.69033        2.21108        0.83131
O         -3.04572        2.26783        0.12134
H         -2.78911        3.09782       -0.30299
S          2.20948        0.58869       -0.24846
O          2.48913        0.27680       -1.64124
O          1.35009       -0.34527        0.48371
O          1.65615        2.04766       -0.10535
H          0.69448        2.08400        0.26091
C          3.75897        0.74179        0.61176
H          4.27250       -0.21668        0.53008
H          4.33795        1.52857        0.12824
H          3.55488        0.98955        1.65305
N         -0.56413       -2.19481        1.67154
H         -0.44558       -1.19834        1.84499
C          0.55766       -2.95986        2.21849
H          0.69148       -2.82989        3.29973
H          0.41048       -4.02446        2.01572
H          1.47267       -2.63579        1.71809
H         -1.43950       -2.44983        2.11827
N         -0.85566       -1.77178       -1.05608
C         -2.23276       -2.22490       -1.33127
C          0.17991       -2.37714       -1.91297
H         -0.84631       -0.73663       -1.15101
H         -2.30034       -3.30182       -1.16335
H         -2.90025       -1.69444       -0.65114
H         -2.49638       -1.99178       -2.36417
H          0.21755       -3.45257       -1.72721
H         -0.05946       -2.19221       -2.96179
H          1.13845       -1.91611       -1.67703
H         -0.65777       -1.97244       -0.02419
