33
1sa1msa1ma1dma_86.log	Energy: -1001155.3691614
S          1.02888        0.83396        0.55857
O          0.95899       -0.59242        0.01420
O         -0.02229        1.04119        1.58121
O          2.41456        0.98023        1.13833
O          0.85006        1.78873       -0.58566
H          3.33944        0.17703        0.40974
H         -0.71679        2.28396       -0.50416
S         -2.41021       -1.43333       -0.18287
O         -3.31841       -2.49021       -0.57938
O         -2.88569       -0.04906       -0.38098
O         -1.05488       -1.64091       -0.92408
H         -0.22665       -1.11122       -0.51886
C         -1.99359       -1.59987        1.54028
H         -2.92306       -1.48818        2.10006
H         -1.57298       -2.59450        1.68883
H         -1.27668       -0.81647        1.80401
N         -1.69878        2.40257       -0.12560
H         -2.17089        1.48281       -0.25760
C         -2.45110        3.52088       -0.71784
H         -3.43459        3.59224       -0.25278
H         -1.90283        4.45100       -0.56734
H         -2.57075        3.33767       -1.78531
H         -1.54016        2.48580        0.88114
N          4.01129       -0.46532       -0.20971
C          3.69494       -0.19513       -1.63238
C          3.80660       -1.87651        0.18746
H          4.96866       -0.18134       -0.01011
H          2.64535       -0.44498       -1.78941
H          3.83660        0.86833       -1.82508
H          4.33927       -0.79388       -2.27992
H          2.74646       -2.09507        0.05754
H          4.42411       -2.53383       -0.42885
H          4.06925       -1.98679        1.23989
