36
1sa1msa1ma1tma_96.log	Energy: -1025809.8294580
S         -1.27135       -1.81008        0.14425
O         -2.67072       -1.97616        0.50977
O         -0.92443       -1.85868       -1.27465
O         -0.66041       -0.59436        0.79689
O         -0.45389       -3.06241        0.78881
H         -0.90966       -3.33256        1.59736
S          2.51906        0.08348       -0.07694
O          3.89084        0.44682        0.20107
O          1.61168        1.09342       -0.63172
O          1.89177       -0.46553        1.26986
H          0.89665       -0.56055        1.15902
C          2.47638       -1.33423       -1.15175
H          2.95179       -1.04035       -2.08865
H          3.03689       -2.13684       -0.67273
H          1.43450       -1.62149       -1.31482
N         -1.55029        1.88683        2.15912
H         -2.19133        2.10741        2.91377
C         -0.18283        2.26724        2.52395
H          0.19778        1.77858        3.43065
H          0.49527        2.01250        1.70433
H         -0.12901        3.35033        2.67150
H         -1.58823        0.88030        2.01186
N         -1.21943        1.48538       -1.18276
C         -0.87002        2.90116       -0.88819
H         -1.21674        3.11893        0.12325
H          0.21171        3.00806       -0.95458
H         -1.36977        3.53827       -1.62116
C         -0.76948        1.07124       -2.53881
H          0.29967        1.26168       -2.61469
H         -0.96541        0.00483       -2.65091
H         -1.32347        1.65428       -3.27754
C         -2.67491        1.24178       -0.99163
H         -2.88929        0.19075       -1.18381
H         -2.92215        1.49429        0.03912
H         -3.22628        1.87493       -1.68976
H         -0.72194        0.88894       -0.49551
