20
1sa1msa1a_09.log	Energy: -891674.5556836
S          2.26570       -0.22929       -0.11173
O          0.95515       -0.34641       -0.80620
O          3.40105       -0.86466       -0.74749
O          2.47556        1.18602        0.29248
O          1.98481       -1.04935        1.27163
H          1.10027        1.96346        0.18853
H          2.82538       -1.42559        1.56506
S         -2.14880       -0.11360       -0.01695
O         -2.13683        0.76876       -1.18260
O         -1.76289        0.52633        1.24858
O         -1.28395       -1.39633       -0.27418
H         -0.32062       -1.11712       -0.47004
C         -3.74034       -0.86742        0.16912
H         -4.44880       -0.06593        0.37908
H         -3.98764       -1.37168       -0.76458
H         -3.69125       -1.57177        0.99897
N          0.10427        2.34223        0.08478
H         -0.50420        1.88424        0.78329
H         -0.26545        2.05126       -0.82546
H          0.07092        3.35328        0.17811
