23
1sa1msa1ma_15.log	Energy: -916335.5935031
S         -2.03681       -0.71067        0.09371
O         -0.92104       -0.34958       -0.84035
O         -2.05151       -2.10272        0.49769
O         -2.15107        0.31219        1.15269
O         -3.38586       -0.45352       -0.78177
H         -1.03541        1.48648        0.93178
H         -3.58868       -1.27178       -1.25468
S          2.26371       -0.23044        0.07738
O          2.05475       -0.55697        1.47632
O          2.00391        1.17308       -0.30199
O          1.46314       -1.18568       -0.87460
H          0.46354       -0.95308       -0.85717
C          3.91637       -0.64628       -0.41142
H          4.06981       -1.70623       -0.21001
H          4.03494       -0.42355       -1.47107
H          4.58637       -0.03694        0.19552
N         -0.39250        2.26021        0.60505
H         -0.25278        2.91889        1.36792
C         -0.98423        2.90503       -0.59216
H         -0.31725        3.68771       -0.95295
H         -1.10328        2.13075       -1.34932
H         -1.95771        3.31992       -0.33290
H          0.52587        1.83716        0.35751
