36
1sa1msa1ma1tma_70.log	Energy: -1025812.9221071
S         -0.38030       -1.63131       -0.46788
O         -0.45984       -0.50312        0.55690
O          0.70617       -2.54153       -0.13693
O         -1.69705       -2.17446       -0.75453
O          0.02649       -0.85415       -1.83297
H          0.91985       -0.46691       -1.69389
S          2.88083        0.46388        0.31494
O          3.83695        1.49781        0.64128
O          2.25471        0.49547       -1.01754
O          1.73756        0.51532        1.40776
H          0.89387        0.04129        1.09529
C          3.60421       -1.14179        0.53923
H          4.39637       -1.23932       -0.20415
H          4.01192       -1.18795        1.54891
H          2.82210       -1.88864        0.38310
N         -3.83879       -0.55155        0.67497
H         -4.80978       -0.80160        0.51643
C         -3.50666       -0.70805        2.09356
H         -3.71262       -1.70867        2.49658
H         -2.43933       -0.51237        2.22671
H         -4.06681        0.02004        2.69028
H         -3.27520       -1.20482        0.13011
N         -1.61225        1.74742       -0.38701
C         -2.35198        1.43138       -1.63771
H         -1.70170        0.83811       -2.28091
H         -3.23190        0.85015       -1.36186
H         -2.63653        2.36713       -2.12422
C         -2.48652        2.41494        0.60877
H         -3.33261        1.74970        0.79237
H         -1.91899        2.57068        1.52712
H         -2.81454        3.37564        0.20508
C         -0.37238        2.51923       -0.65517
H          0.14889        2.68780        0.28778
H          0.27298        1.93873       -1.31389
H         -0.63792        3.47300       -1.11589
H         -1.29927        0.82881        0.02254
