38
1sa1msa1dma1eda_161.log	Energy: -1060548.3790764
S         -0.93846       -0.62884       -0.60270
O          0.39206       -0.53755       -1.28880
O         -1.25086       -1.94158       -0.06206
O         -1.04727        0.47805        0.40552
O         -1.95279       -0.26206       -1.75544
H          0.29046        1.41186        0.22877
H         -2.88371       -0.03362       -1.35372
S          3.26643       -0.62562        0.26239
O          2.71122       -0.41842        1.59368
O          3.42026        0.59749       -0.54750
O          2.47063       -1.70020       -0.54236
H          1.55379       -1.31286       -0.85484
C          4.83851       -1.43655        0.38188
H          4.68908       -2.38687        0.89390
H          5.22980       -1.58696       -0.62362
H          5.48968       -0.78270        0.96235
N          1.06344        2.08363       -0.02772
C          1.46103        2.85701        1.16525
C          0.58291        2.88516       -1.17163
H          1.87082        1.51089       -0.33238
H          0.59218        3.39284        1.55033
H          1.83071        2.15424        1.91259
H          2.24827        3.56292        0.89573
H         -0.28804        3.46349       -0.85979
H          1.37655        3.55299       -1.51047
H          0.30093        2.19500       -1.96723
H         -5.98580       -0.05937        0.38640
H         -5.26468       -1.37811       -0.56794
H         -4.84751       -1.50636        1.92713
H         -3.38668       -1.56575        0.93801
H         -3.80296        0.18312        2.96434
H         -2.72045        0.40724        1.75124
H         -4.84631        0.83235       -1.51250
H         -4.03801        1.24117       -0.14418
C         -5.03910       -0.50208        0.04826
C         -4.20754       -0.91632        1.26306
N         -4.27306        0.46182       -0.76018
N         -3.70704        0.27263        1.96153
