30
1sa1msa1a1dma_94.log	Energy: -976490.8127770
S          2.53613       -0.30324       -0.12164
O          3.56103       -0.10674       -1.13082
O          1.12776       -0.21417       -0.60318
O          2.63706       -1.87039        0.33393
O          2.69110        0.49459        1.11257
H          3.53957       -2.16401        0.15242
H          1.14649        0.97714        1.65170
S         -1.93559       -1.26449       -0.03019
O         -2.53367       -0.15370       -0.75908
O         -1.54608       -0.99196        1.36159
O         -0.73189       -1.88535       -0.81795
H          0.09544       -1.27558       -0.76785
C         -3.03619       -2.65531       -0.04519
H         -3.94060       -2.34994        0.48152
H         -3.25691       -2.89974       -1.08393
H         -2.54896       -3.48681        0.46268
N          0.15163        1.24216        1.84156
H         -0.44124        0.40298        1.72764
H         -0.15751        1.98051        1.12150
H          0.05855        1.60112        2.78712
N         -0.70920        3.08004       -0.05320
C         -2.16005        3.22440        0.10002
C         -0.34106        2.57161       -1.38179
H         -0.26972        3.98651        0.08165
H         -2.62230        2.23792        0.00594
H         -2.38821        3.63142        1.08941
H         -2.59928        3.88477       -0.66117
H         -0.79062        1.58626       -1.51839
H         -0.69135        3.23407       -2.18586
H          0.74231        2.45912       -1.44817
