27
1sa1msa1a1ma_07.log	Energy: -951844.8346702
S         -2.52205       -0.30159       -0.12978
O         -2.66663        0.81685       -1.05641
O         -2.30671       -1.61858       -0.76668
O         -1.54998       -0.05917        0.96733
O         -3.92316       -0.42581        0.68975
H         -4.63722       -0.52111        0.04487
S          2.56686       -0.16173       -0.10795
O          2.33450       -1.41297       -0.88088
O          1.87074       -0.18297        1.20533
O          2.24747        1.07416       -0.87442
C          4.31992       -0.10554        0.20776
H          4.59335       -0.99409        0.77691
H          4.83427       -0.09048       -0.75325
H          4.53738        0.79986        0.77449
N          0.10134       -2.37509        0.31673
H         -0.79730       -2.26501       -0.20489
H          0.10798       -1.64884        1.04325
H          0.17473       -3.29730        0.73516
H          0.93543       -2.16580       -0.28705
N          0.09501        2.07481        0.48530
H          0.86083        1.73752       -0.14780
H         -0.52193        1.25426        0.69303
C         -0.68017        3.18940       -0.10402
H         -1.41277        3.54329        0.62107
H         -0.00136        3.99531       -0.38278
H         -1.20515        2.80537       -0.97762
H          0.55210        2.32699        1.35964
