39
1sa1msa1dma1tma_01.log	Energy: -1050491.8982637
S         -0.26229       -1.92927       -0.62194
O         -1.54966       -2.37181       -1.15405
O          0.45467       -0.99647       -1.71294
O         -0.42200       -1.04754        0.58496
O          0.74421       -2.97718       -0.37298
H          2.01531       -1.91430        0.24815
S          0.72408        2.19178       -0.19196
O          1.95372        1.42028        0.14461
O         -0.11188        2.53230        0.97004
O         -0.05020        1.54918       -1.29977
H          0.20865       -0.03480       -1.58685
C          1.31946        3.73283       -0.87059
H          0.45551        4.33380       -1.15574
H          1.90155        4.23874       -0.10002
H          1.93705        3.50937       -1.74060
N          2.57732       -1.13763        0.65857
C          3.94937       -1.16484        0.11787
C          2.48304       -1.21081        2.13058
H          2.13298       -0.23427        0.36369
H          4.44136       -2.09335        0.41231
H          3.88890       -1.10379       -0.96861
H          4.49993       -0.30549        0.50286
H          2.94862       -2.13333        2.48146
H          2.98339       -0.34265        2.56168
H          1.42438       -1.19778        2.38879
N         -2.80745        0.11832        0.57015
C         -3.03134        0.64143       -0.80240
H         -2.27048        1.39460       -1.01059
H         -2.91838       -0.18692       -1.50328
H         -4.03832        1.06207       -0.86159
C         -3.69638       -1.03084        0.86596
H         -3.49535       -1.81197        0.13168
H         -3.46712       -1.40402        1.86471
H         -4.73734       -0.70168        0.81787
C         -2.90209        1.18954        1.59083
H         -2.71206        0.75248        2.57196
H         -2.13734        1.93833        1.37551
H         -3.90591        1.62089        1.56253
H         -1.81655       -0.26470        0.59298
