28
1sa1msa1eda_90.log	Energy: -975731.1045579
S         -0.33886        1.29200        0.00018
O         -0.15033        0.22643       -1.04383
O          0.72611        2.27913        0.01600
O         -1.72509        1.80920       -0.05904
O         -0.32389        0.49544        1.40122
H          0.55440        0.05072        1.48004
S          3.01424       -0.75614        0.08024
O          4.05907       -1.75402        0.05104
O          2.07309       -0.75897        1.20932
O          2.19380       -0.88661       -1.26773
H          1.29315       -0.43857       -1.19644
C          3.72673        0.86853       -0.03019
H          4.31822        1.01723        0.87407
H          4.36054        0.89657       -0.91639
H          2.91405        1.59617       -0.08829
H         -3.03005       -2.27298       -0.43212
H         -1.98815       -1.18367        0.52348
H         -4.18681       -1.61254        1.68550
H         -3.95266        0.09020        1.28524
H         -5.75646       -1.76424       -0.07787
H         -6.02565       -0.22475        0.40029
H         -2.16441       -0.53785       -1.82676
H         -3.82953       -0.26286       -1.56830
C         -2.93132       -1.26581       -0.01866
C         -4.12552       -0.90050        0.85403
N         -2.89407       -0.30301       -1.15199
N         -5.32716       -0.85028        0.01774
H         -2.60545        0.64777       -0.77638
