32
1sa1msa1a1eda_95.log	Energy: -1011237.0903753
S         -1.55203        1.97126       -0.10684
O         -0.13760        1.88363        0.25179
O         -2.37370        1.06916        0.89946
O         -2.19580        3.25170       -0.17193
O         -1.75642        1.25910       -1.50177
H         -1.36674        0.33629       -1.48518
S         -0.77391       -2.03460       -0.13209
O          0.51565       -2.72892        0.08131
O         -0.76178       -1.16799       -1.34115
O         -1.22518       -1.28804        1.08210
H         -1.95154        0.16429        0.99413
C         -1.99123       -3.30134       -0.41648
H         -2.01438       -3.95062        0.45873
H         -2.95579       -2.81550       -0.56529
H         -1.69693       -3.85831       -1.30605
N          1.01786        0.26732        2.45154
H          1.27024        0.44190        3.41804
H          0.25041       -0.40489        2.43081
H          0.64016        1.12467        2.04827
H          2.52939       -0.40539       -1.69334
H          1.35355        0.55401       -0.76741
H          3.32438        1.95103       -1.41172
H          3.16097        1.80183        0.33670
H          5.12623        0.38953       -1.31358
H          5.37337        1.27380        0.03670
H          1.91106       -1.66236        0.20002
H          3.47103       -1.02279        0.50251
C          2.36461        0.14614       -0.76394
C          3.39993        1.24551       -0.57530
N          2.47936       -0.80810        0.36700
N          4.72514        0.64042       -0.41568
H          2.07173       -0.37244        1.25544
