23
1sa1msa1ma_30.log	Energy: -916333.4655306
S         -1.14901       -0.85638       -0.05498
O         -0.06626       -1.80553       -0.34250
O         -1.12915        0.32767       -0.96794
O         -2.49434       -1.44812        0.03778
O         -0.90362       -0.26932        1.41912
H          0.02108        0.07899        1.45993
S          2.61442        0.35343        0.12363
O          4.01077        0.61159        0.38566
O          1.63464        0.62879        1.18339
O          2.48599       -1.16085       -0.31763
H          1.52849       -1.45286       -0.32028
C          2.09840        1.24621       -1.32640
H          2.21587        2.30758       -1.10376
H          2.74836        0.95167       -2.15022
H          1.05161        1.00376       -1.52541
N         -3.72059        0.83030       -0.63264
H         -3.70214       -0.19101       -0.42220
H         -2.74399        0.94059       -1.00772
C         -3.87886        1.60611        0.62299
H         -3.76525        2.66817        0.40928
H         -4.85966        1.40785        1.05350
H         -3.09817        1.27964        1.31085
H         -4.42015        1.05283       -1.33631
