35
1sa1msa1ma1eda_127.log	Energy: -1035887.5648196
S          0.25650        2.11403       -0.17561
O          1.54374        1.82586        0.47393
O          0.05791        1.53189       -1.50452
O         -0.88446        1.84756        0.74632
O          0.30923        3.72202       -0.37105
H         -0.41420        3.97871       -0.95880
S         -2.50580       -1.05370       -0.19029
O         -3.65789       -1.91497       -0.04175
O         -1.27399       -1.39705        0.53680
O         -2.94053        0.40920        0.20533
H         -2.13658        1.00085        0.38449
C         -2.08297       -0.90409       -1.91052
H         -1.73661       -1.88268       -2.24602
H         -2.98381       -0.61041       -2.44946
H         -1.29938       -0.14740       -2.00319
N          0.90217       -0.42193        1.99308
H         -0.07615       -0.53317        1.69083
H          1.42767       -1.19630        1.47992
C          1.04946       -0.48428        3.45754
H          2.10496       -0.39447        3.71517
H          0.49303        0.33411        3.91447
H          0.66340       -1.43681        3.82130
H          1.22678        0.48136        1.59970
H          1.78384       -2.50172       -1.78146
H          0.81841       -1.24459       -0.98883
H          2.70194       -0.24954       -2.21490
H          2.83939        0.06201       -0.49322
H          4.41658       -1.89896       -1.99558
H          4.93956       -0.69842       -1.02150
H          1.41899       -3.19587        0.43763
H          2.97463       -2.64919        0.39494
C          1.78985       -1.74773       -0.98027
C          2.89177       -0.72946       -1.24582
N          1.99679       -2.36656        0.33977
N          4.20186       -1.38087       -1.14955
