36
1sa1msa2dma_60.log	Energy: -1025815.6480835
S          1.02204       -0.79828       -0.39031
O          1.08362        0.68981       -0.20693
O          0.87799       -1.50502        0.89039
O         -0.03495       -1.18399       -1.36446
O          2.38049       -1.18993       -1.06410
H          3.18076       -0.69415       -0.58047
S         -2.13072        1.84610        0.21752
O         -2.97085        2.97669        0.54736
O         -2.63624        0.50828        0.57085
O         -0.72709        2.07670        0.87821
H         -0.00388        1.45223        0.50068
C         -1.78018        1.82740       -1.52912
H         -1.31699        2.77891       -1.78982
H         -1.11372        0.98875       -1.74613
H         -2.73721        1.71382       -2.04013
N         -2.05075       -2.12581        0.15707
C         -1.77267       -3.11279        1.22112
C         -3.20594       -2.44826       -0.70369
H         -2.20338       -1.18105        0.55548
H         -1.60675       -4.08909        0.76312
H         -0.87103       -2.79384        1.74245
H         -2.62527       -3.15891        1.90079
H         -3.03156       -3.40598       -1.19605
H         -4.11087       -2.49802       -0.09645
H         -3.30940       -1.66137       -1.45040
H         -1.20469       -1.97268       -0.44720
N          4.28759        0.10527        0.09045
C          3.98771        0.21925        1.52324
C          4.33664        1.40768       -0.58330
H          5.17562       -0.37368       -0.03044
H          3.00506        0.68262        1.63510
H          3.94367       -0.77751        1.96627
H          4.73361        0.82536        2.05434
H          3.34189        1.85605       -0.52914
H          5.06782        2.08665       -0.12465
H          4.59027        1.26063       -1.63542
