33
1sa1msa1ma1dma_53.log	Energy: -1001155.3416262
S         -1.44833        0.65455       -0.55578
O         -1.30861       -0.84526       -0.54347
O         -0.75034        1.30305       -1.65975
O         -2.98875        0.90567       -0.74421
O         -1.06633        1.20635        0.77684
H         -3.49126        0.37268       -0.01576
H          0.45710        1.81084        0.60306
S          2.07128       -1.40238       -0.01278
O          1.89942       -1.19030        1.42130
O          2.50353       -0.21460       -0.77253
O          0.82212       -2.04774       -0.66187
H         -0.08203       -1.46743       -0.60284
C          3.26425       -2.68710       -0.29030
H          4.20778       -2.34049        0.13189
H          2.91992       -3.58776        0.21702
H          3.35466       -2.84878       -1.36392
N         -4.05237       -0.60157        1.12591
H         -3.29478       -0.61715        1.80433
C         -4.25284       -1.93808        0.54705
H         -4.49769       -2.70075        1.29504
H         -5.06084       -1.88986       -0.18627
H         -3.33681       -2.22089        0.02532
H         -4.88394       -0.27786        1.60936
N          1.44441        2.10607        0.37815
C          2.22702        2.18275        1.62848
C          1.40642        3.34706       -0.42308
H          1.82296        1.32807       -0.19532
H          1.78838        2.94011        2.27996
H          2.19225        1.20375        2.10801
H          3.26033        2.44523        1.39463
H          0.98030        4.14837        0.18264
H          2.42010        3.61030       -0.73038
H          0.77451        3.16030       -1.29152
