38
1sa1msa1dma1eda_237.log	Energy: -1060547.6992263
S          0.13953       -1.50399        0.47138
O         -0.06285       -0.32326       -0.47480
O          0.86860       -1.04891        1.65984
O         -1.11079       -2.21230        0.70192
O          1.06228       -2.51502       -0.34321
H          1.88827       -2.04292       -0.60059
S          3.35214        0.52966       -0.57627
O          4.33341        1.34306       -1.25791
O          3.16716       -0.86478       -0.99217
O          1.95224        1.27259       -0.67912
H          1.18748        0.60838       -0.63284
C          3.68373        0.53720        1.17049
H          4.63911        0.03056        1.31301
H          3.74911        1.57494        1.49781
H          2.87322        0.00008        1.66807
N         -1.65798        1.46627        0.79851
C         -2.01792        0.83816        2.09188
C         -0.84376        2.69124        0.92161
H         -1.10431        0.76685        0.24837
H         -2.54792        1.56628        2.70936
H         -2.65893       -0.01908        1.87999
H         -1.10828        0.49914        2.59014
H         -1.39520        3.44095        1.49188
H          0.09113        2.44845        1.42862
H         -0.61955        3.07226       -0.07504
H         -2.54814        1.64077        0.25383
H         -5.20768        0.42147       -1.98332
H         -3.71304        1.20067       -2.52226
H         -3.49562       -1.28183       -2.27873
H         -2.33285       -0.39733       -1.30975
H         -4.65906       -1.81576       -0.29937
H         -3.10000       -1.81888        0.21456
H         -4.70015        2.37795       -0.66201
H         -4.61773        1.01622        0.25379
C         -4.17724        0.66711       -1.68713
C         -3.39954       -0.61876       -1.40743
N         -4.16075        1.53430       -0.49566
N         -3.84394       -1.22922       -0.15430
