27
1sa1msa1a1ma_100.log	Energy: -951829.5799840
S         -1.53287        0.78421        0.33517
O         -1.76570       -0.08912        1.47767
O         -0.53572        0.21289       -0.64653
O         -2.88186        0.92334       -0.47352
O         -1.13349        2.18065        0.64806
H         -3.41556        0.04430       -0.36654
H          0.09865        2.55776       -0.21273
S          2.66531       -0.52981        0.14859
O          2.87074       -0.29166        1.56383
O          2.72997        0.65206       -0.73802
O          1.34616       -1.31585       -0.13452
H          0.51960       -0.68693       -0.28351
C          3.86152       -1.70367       -0.43750
H          4.84546       -1.26400       -0.27252
H          3.74718       -2.61923        0.14262
H          3.68406       -1.88315       -1.49700
N          0.91544        2.70712       -0.89857
H          1.61501        1.94233       -0.76854
H          1.35015        3.61600       -0.76689
H          0.54017        2.63041       -1.84114
N         -4.02141       -1.39438       -0.02062
H         -3.80925       -1.43048        0.97400
C         -3.26314       -2.42767       -0.73835
H         -3.50990       -3.44718       -0.42098
H         -3.45415       -2.33297       -1.80965
H         -2.19824       -2.25505       -0.56912
H         -5.02147       -1.52181       -0.13446
