42
1sa1msa2tma_19.log	Energy: -1075137.6724048
S         -0.75086        0.83910       -0.43253
O         -1.55371        2.05996       -0.33710
O          0.40273        0.90869       -1.36318
O         -0.26406        0.40075        0.92557
O         -1.64930       -0.32740       -0.98786
H         -2.60561       -0.31113       -0.50436
S          1.99203       -2.14788        0.05640
O          2.63578       -3.38974        0.43369
O          2.80452       -0.92818       -0.01139
O          0.79639       -1.91844        1.05798
H          0.38671       -0.98304        0.98631
C          1.19551       -2.34933       -1.52136
H          1.97814       -2.59352       -2.24084
H          0.48005       -3.16689       -1.43692
H          0.70227       -1.41142       -1.78229
N          2.41834        1.97201        0.16686
C          3.70741        1.92911       -0.56546
H          4.13477        0.93443       -0.44859
H          3.51239        2.12371       -1.62046
H          4.37433        2.69238       -0.15813
C          1.73037        3.27846       -0.00124
H          1.55702        3.44667       -1.06337
H          0.76672        3.23649        0.50697
H          2.35851        4.06547        0.42161
C          2.57821        1.62337        1.60268
H          1.58448        1.56012        2.04540
H          3.06451        0.65156        1.66500
H          3.17828        2.39897        2.08445
H          1.79038        1.26783       -0.28450
N         -3.92512       -0.26232        0.17190
C         -4.68501        0.81750       -0.46454
H         -4.10722        1.74163       -0.39677
H         -4.83543        0.58055       -1.52063
H         -5.66580        0.95336        0.01568
C         -4.58746       -1.55730        0.01658
H         -4.72528       -1.77040       -1.04627
H         -3.96054       -2.33988        0.45092
H         -5.56946       -1.57031        0.51293
C         -3.66175        0.03777        1.58357
H         -3.01922       -0.73822        2.00561
H         -3.13568        0.99182        1.65278
H         -4.59814        0.08981        2.15902
