35
1sa1msa1ma1eda_75.log	Energy: -1035893.6106537
S         -0.85465       -2.15629       -0.26877
O         -0.66259       -3.56813       -0.01998
O         -0.12648       -1.61130       -1.45131
O         -2.26879       -1.68899       -0.26814
O         -0.16028       -1.41816        1.00611
H         -2.75518       -0.61157        0.78663
H         -0.18006       -0.43517        0.87669
S         -0.02745        2.14037       -0.35101
O         -0.34542        3.53672       -0.08535
O         -0.53790        1.20759        0.72511
O          1.41629        1.85647       -0.60918
H          1.97871        0.31142       -0.78300
C         -0.88612        1.63932       -1.83579
H         -1.94505        1.86753       -1.70681
H         -0.48104        2.21799       -2.66671
H         -0.73812        0.56610       -1.98171
N         -2.96417        0.27155        1.34389
H         -3.05273        0.03525        2.32958
C         -4.16298        0.95612        0.81606
H         -4.29936        1.91212        1.32133
H         -4.01402        1.12294       -0.25018
H         -5.03860        0.32367        0.95940
H         -2.09848        0.84825        1.20987
H          4.72411        0.05911       -0.03276
H          4.68551       -0.85699        1.47303
H          3.49730       -2.18055       -0.11908
H          2.26623       -1.47757        0.95518
H          2.93307       -0.62195       -1.78160
H          1.45261       -1.20570       -1.21425
H          4.09758        1.34336        2.03009
H          2.87013        1.40987        0.94130
C          4.05950       -0.28333        0.78252
C          3.03120       -1.24952        0.21103
N          3.41723        0.78506        1.52940
N          2.32447       -0.66555       -0.96636
