38
1sa1msa1dma1eda_245.log	Energy: -1060547.6244837
S          0.18584       -1.67828       -0.12538
O          0.53581       -0.89348       -1.35130
O          0.03362       -0.78803        1.04000
O         -0.96617       -2.56887       -0.34201
O          1.40707       -2.66061        0.14428
H          2.22596       -2.11294        0.19439
S          3.32789        0.65051        0.07145
O          4.52398        1.42260       -0.17917
O          3.43578       -0.80793        0.19460
O          2.28350        0.98930       -1.07028
H          1.62356        0.23165       -1.19594
C          2.52739        1.26059        1.53826
H          3.20091        1.06382        2.37336
H          2.37129        2.33229        1.41435
H          1.58566        0.71964        1.65481
N         -3.09618       -0.90093        0.15398
C         -4.40885       -1.21418       -0.43741
C         -3.12765       -0.64286        1.61260
H         -2.41330       -1.66802       -0.03799
H         -5.09728       -0.39154       -0.23540
H         -4.28940       -1.34628       -1.51332
H         -4.79973       -2.13335        0.00175
H         -3.66118        0.29272        1.78364
H         -3.61736       -1.48158        2.11114
H         -2.09515       -0.56056        1.95356
H         -2.68888       -0.06882       -0.36062
H         -2.46233        3.76515       -0.84696
H         -2.09067        3.66237        0.87337
H         -0.36665        2.58714       -0.56267
H         -1.05665        1.47864        0.62578
H         -1.96488        1.57763       -2.16333
H         -0.92988        0.47527       -1.54368
H         -4.31496        3.07473        0.69862
H         -4.08010        2.06404       -0.55304
C         -2.38426        3.06763        0.00326
C         -1.28291        2.05302       -0.27806
N         -3.66002        2.40749        0.30511
N         -1.71086        1.09248       -1.30621
