36
1sa1msa2dma_07.log	Energy: -1025830.8226367
S          2.63320       -0.01761       -0.20972
O          2.78480       -1.03966       -1.24227
O          2.47049        1.36067       -0.72373
O          1.63004       -0.33818        0.83155
O          4.01995       -0.00771        0.64833
H          4.75166        0.08571        0.02361
S         -2.59842        0.01472       -0.22506
O         -2.16619       -0.09255        1.18403
O         -2.20530       -1.17609       -1.03165
O         -2.17784        1.29807       -0.85806
C         -4.38174        0.04291       -0.24682
H         -4.74279       -0.88375        0.19956
H         -4.71469        0.90442        0.33230
H         -4.70875        0.12526       -1.28338
N         -0.07879       -2.38517        0.16443
C         -0.63956       -2.95037        1.40966
C          0.61362       -3.36199       -0.70155
H         -0.86190       -1.92902       -0.36512
H          0.17269       -3.33744        2.02704
H         -1.17204       -2.15083        1.92595
H         -1.33322       -3.75370        1.15525
H          1.41164       -3.84306       -0.13393
H         -0.10643       -4.10647       -1.04515
H          1.05298       -2.82884       -1.54383
H          0.58250       -1.61745        0.41570
N          0.07445        2.44493        0.09631
C         -0.00294        2.37697        1.57207
C          0.07004        3.81520       -0.45215
H          0.94716        1.96910       -0.22008
H         -0.91749        2.87152        1.90213
H         -0.02751        1.32751        1.85968
H          0.87481        2.86560        1.99805
H         -0.86279        4.30972       -0.17745
H          0.92189        4.36704       -0.05169
H          0.14869        3.75568       -1.53758
H         -0.74666        1.92430       -0.30267
