32
1sa1msa1a1eda_140.log	Energy: -1011230.6678786
S          1.81787        0.57773       -0.25524
O          3.02995        0.98917       -0.95397
O          0.59379        0.52922       -1.10265
O          2.01880       -0.94844        0.19623
O          1.54662        1.35620        0.98298
H          3.01268       -1.12900        0.30734
H         -0.01772        1.60300        1.25886
S         -1.73321       -1.82720        0.09074
O         -3.03251       -2.42575       -0.13261
O         -1.57641       -0.84802        1.17069
O         -1.27735       -1.17721       -1.27723
H         -0.47719       -0.55851       -1.16495
C         -0.51458       -3.09434        0.35165
H         -0.76150       -3.59078        1.29080
H         -0.56968       -3.79370       -0.48245
H          0.46142       -2.60788        0.40715
N          4.67915       -1.16165        0.29245
H          5.13237       -1.93972       -0.17410
H          5.14445       -1.00568        1.18015
H          4.79295       -0.32702       -0.28128
H         -2.32240        3.49499        1.21442
H         -0.60240        3.83870        0.89641
H         -1.93550        3.73396       -1.23200
H         -0.69922        2.46834       -1.16867
H         -3.56104        2.06688       -1.01794
H         -2.37719        1.03469       -1.52100
H         -1.16847        1.89189        2.44490
H         -1.60892        1.06691        1.07385
C         -1.40719        3.11433        0.75304
C         -1.64012        2.80603       -0.72726
N         -1.03478        1.85129        1.43743
N         -2.62279        1.73708       -0.83441
