41
1sa1msa1tma1eda_65.log	Energy: -1085217.9677164
S         -2.41987        1.48426       -0.02830
O         -2.92886        0.86553        1.19064
O         -1.57985        2.69068        0.15322
O         -1.78091        0.53345       -0.96890
O         -3.77504        2.01107       -0.76891
H         -3.51198        2.57330       -1.50932
S          2.14316       -1.57601        0.04149
O          1.72842       -2.81069        0.73348
O          2.98190       -0.65223        0.82484
O          0.95731       -0.86695       -0.56250
C          3.13384       -2.09460       -1.35704
H          3.43998       -1.20865       -1.91460
H          4.00582       -2.62486       -0.97284
H          2.53252       -2.75241       -1.98548
H          1.29866        3.18257        1.28148
H          1.65437        1.47846        1.66249
H          3.74645        2.86239        1.44652
H          3.66350        1.49920        0.32460
H          3.21745        4.31950       -0.37329
H          4.21920        3.23718       -1.08003
H          0.02777        2.16292       -0.25114
H          1.47443        2.31725       -1.10305
C          1.75909        2.26207        0.91187
C          3.22827        2.47295        0.56113
N          1.01908        1.85335       -0.30842
N          3.32511        3.34010       -0.61601
H          1.02515        0.81037       -0.44940
N         -1.75573       -2.08370        0.03170
C         -1.43659       -2.09975        1.48658
H         -0.35469       -2.17282        1.59960
H         -1.82444       -1.17801        1.92175
H         -1.92046       -2.97056        1.93500
C         -3.22270       -2.01534       -0.19870
H         -3.62017       -1.15924        0.34541
H         -3.40304       -1.88865       -1.26594
H         -3.67214       -2.94460        0.15795
C         -1.14960       -3.23778       -0.67994
H         -1.29382       -3.09744       -1.75164
H         -0.08917       -3.28209       -0.43312
H         -1.65310       -4.14906       -0.34912
H         -1.35185       -1.20720       -0.35595
