33
1sa1msa1a1tma_77.log	Energy: -1001133.4946456
S          1.99287        0.29513       -0.46226
O          1.06583       -0.20495       -1.47225
O          2.77495        1.47478       -0.74483
O          1.18823        0.60643        0.86220
O          2.92444       -0.89844       -0.07781
H          0.48355       -0.08042        1.00778
H          3.78629       -0.53134        0.38956
S         -1.56621       -1.84851        0.10383
O         -2.80638       -1.11944       -0.04615
O         -0.58799       -1.35844        1.08843
O         -0.83241       -2.02095       -1.28936
H         -0.10610       -1.34279       -1.39575
C         -1.91381       -3.54830        0.47148
H         -2.45198       -3.56218        1.41966
H         -2.53637       -3.94534       -0.33020
H         -0.97003       -4.08669        0.54686
N          5.03070        0.18901        0.98864
H          5.00075        0.29296        1.99818
H          4.98361        1.11779        0.57474
H          5.92247       -0.22649        0.73861
N         -2.14353        2.88972        0.15574
C         -1.77408        2.31435        1.43721
H         -0.72617        2.54068        1.65452
H         -2.39213        2.74968        2.22906
H         -1.90494        1.21585        1.46292
C         -3.54063        2.63054       -0.14893
H         -4.17432        3.04590        0.64116
H         -3.80846        3.12036       -1.09046
H         -3.76018        1.55103       -0.24208
C         -1.28044        2.40031       -0.90421
H         -1.54142        2.88577       -1.84952
H         -0.23762        2.63867       -0.67686
H         -1.36311        1.30634       -1.04918
