35
1sa1msa1ma1eda_257.log	Energy: -1035880.8503867
S          0.20609       -1.58208        0.13694
O         -1.13670       -2.19799        0.21830
O          1.30953       -2.49516       -0.12077
O          0.18018       -0.62813       -1.17321
O          0.45735       -0.66180        1.28329
H         -0.61980       -0.05455       -1.11702
H          2.00519       -0.22505        1.33629
S         -3.35954        0.44787       -0.24271
O         -4.36974        0.29003       -1.26906
O         -2.01532        0.87982       -0.65952
O         -3.24257       -0.84465        0.64095
H         -2.38332       -1.37976        0.47416
C         -3.94733        1.60562        0.97120
H         -4.10336        2.55667        0.46138
H         -4.88698        1.22568        1.37208
H         -3.19479        1.69612        1.75381
N          2.54017        2.74169        0.61318
H          2.61085        3.59945        1.14967
C          1.19384        2.57945        0.04302
H          0.88891        3.41154       -0.60175
H          1.16331        1.65816       -0.54385
H          0.46207        2.46628        0.84529
H          3.23105        2.76066       -0.13512
H          4.92379       -0.44269        0.70325
H          3.67960       -1.72022        0.63792
H          4.07149       -1.14763       -1.59909
H          2.52674       -0.42523       -1.19636
H          5.06468        1.01437       -1.48399
H          3.66642        1.24528       -2.28264
H          3.31664        0.00772        2.34282
H          2.96900        1.16324        1.15826
C          3.88057       -0.66305        0.45540
C          3.60001       -0.35147       -1.00770
N          3.01089        0.11886        1.37840
N          4.05454        0.99332       -1.37933
