40
1sa1msa2eda_27.log	Energy: -1095297.0422585
S          2.10337       -1.65433       -0.52324
O          1.09507       -2.42068       -1.28995
O          2.58520       -0.46276       -1.25916
O          1.73579       -1.39277        0.86616
O          3.39472       -2.63803       -0.40492
H          3.67178       -2.87426       -1.30042
S         -2.11532        1.66851       -0.50875
O         -2.56016        0.45048       -1.24533
O         -1.05671        2.42248       -1.23796
O         -1.75094        1.38286        0.89396
C         -3.53572        2.74862       -0.49175
H         -3.80961        2.96373       -1.52460
H         -4.34850        2.23667        0.02395
H         -3.26240        3.66384        0.03366
H          0.91292        2.64111        1.44314
H          0.99785        0.87500        1.29734
H          2.95014        1.72991        2.61021
H          3.44627        0.94589        1.10915
H          3.41358        3.83324        1.60200
H          4.60391        2.91246        0.96041
H          0.52803        2.13368       -0.80862
H          2.13399        2.70476       -0.67933
C          1.49315        1.80920        1.03685
C          2.93731        1.82374        1.51716
N          1.49295        1.94103       -0.44266
N          3.59945        3.02961        1.01164
H          1.86530        1.06503       -0.86840
H         -0.82873       -2.63872        1.39057
H         -0.99035       -0.87373        1.27519
H         -2.86536       -1.82894        2.62450
H         -3.42889       -1.03178        1.15292
H         -3.26539       -3.92998        1.56696
H         -4.52698       -3.04319        1.02016
H         -0.54049       -2.12746       -0.85857
H         -2.13605       -2.68811       -0.70523
C         -1.45171       -1.82493        1.01226
C         -2.88084       -1.90031        1.52964
N         -1.48747       -1.93031       -0.46934
N         -3.51709       -3.11614        1.01612
H         -1.86164       -1.03584       -0.87082
