36
1sa1msa2dma_179.log	Energy: -1025802.2901765
S          1.17747       -0.55688        0.74934
O          0.00811       -0.21160        1.57267
O          2.38484       -0.96258        1.46109
O          0.79120       -1.83496       -0.13156
O          1.47119        0.54211       -0.24000
H         -0.10477       -1.69884       -0.53553
H          2.89951        0.37478       -0.73080
S         -2.88939       -1.03161       -0.32133
O         -3.92580       -2.03874       -0.37532
O         -1.63810       -1.26379       -1.06260
O         -2.53044       -0.78238        1.20173
H         -1.56616       -0.54543        1.32391
C         -3.53326        0.53314       -0.84654
H         -3.77477        0.43541       -1.90598
H         -4.43314        0.73209       -0.26382
H         -2.75054        1.28679       -0.67152
N         -1.02364        2.45597       -0.12770
C         -1.19982        2.95073        1.22731
C         -0.87304        3.51750       -1.10565
H         -0.21755        1.83757       -0.16401
H         -2.16752        3.45952        1.31351
H         -1.18924        2.11054        1.92459
H         -0.41653        3.66532        1.53601
H         -1.80167        4.09762       -1.16828
H         -0.05699        4.22366       -0.86798
H         -0.68135        3.08475       -2.09185
N          3.93212        0.17732       -0.99850
C          4.06212       -1.27456       -1.28617
C          4.79077        0.64222        0.11886
H          4.13347        0.71438       -1.84067
H          3.80851       -1.81550       -0.37428
H          3.35221       -1.54166       -2.06862
H          5.08375       -1.49586       -1.59960
H          4.47151        0.11070        1.01580
H          5.83824        0.43613       -0.10824
H          4.63563        1.71219        0.25759
