36
1sa1msa2dma_52.log	Energy: -1025817.8622883
S          0.40146       -1.80182       -0.03838
O          1.39193       -2.73227        0.48081
O         -0.70881       -2.39164       -0.82078
O         -0.17586       -0.90776        1.03873
O          1.13276       -0.80523       -1.03807
H          2.02202       -0.48828       -0.56050
S         -0.69251        2.33847        0.08160
O         -0.74902        3.71685        0.51688
O         -1.96309        1.60842       -0.07380
O          0.24048        1.54584        1.06253
H          0.07170        0.51599        1.04149
C          0.16052        2.24443       -1.47641
H         -0.46844        2.73478       -2.22021
H          1.10817        2.77316       -1.37000
H          0.32491        1.19094       -1.71153
N         -2.88118       -1.00069       -0.04664
C         -3.95834       -0.93324       -1.05274
C         -3.30899       -1.47060        1.28825
H         -2.09659       -1.61469       -0.39155
H         -4.72611       -0.23519       -0.71583
H         -3.53380       -0.58343       -1.99353
H         -4.38874       -1.92637       -1.18951
H         -4.05742       -0.78495        1.68894
H         -3.72914       -2.47318        1.19563
H         -2.42814       -1.49068        1.92960
H         -2.45160       -0.06094        0.04670
N          3.26465       -0.11999        0.23891
C          3.62205        1.29482        0.13271
C          4.33084       -1.03568       -0.17680
H          3.00290       -0.33322        1.19872
H          3.78509        1.54089       -0.92105
H          2.79790        1.90093        0.51522
H          4.53731        1.53843        0.68872
H          4.53532       -0.88048       -1.23991
H          5.26022       -0.87661        0.38590
H          3.98347       -2.06087       -0.03531
