33
1sa1msa1ma1dma_32.log	Energy: -1001159.0943023
S          1.24280        0.50423        1.00898
O          0.63892       -0.97217        0.96824
O          0.28165        1.38502        1.68550
O          2.54154        0.32509        1.68159
O          1.42021        0.89410       -0.43361
H          3.63221       -0.41119        0.39346
H         -0.63842        1.47819       -1.09265
S         -2.85270       -0.91857       -0.30686
O         -3.57452       -1.88603       -1.12242
O         -3.40734        0.47258       -0.34263
O         -1.37337       -0.86152       -0.59273
H         -0.19498       -0.97868        0.38747
C         -2.97740       -1.43894        1.39941
H         -4.03318       -1.44091        1.67165
H         -2.56139       -2.44388        1.48004
H         -2.41738       -0.74075        2.02332
N         -1.28074        2.06209       -0.54745
H         -2.19145        1.52052       -0.48321
C         -1.44142        3.41213       -1.11441
H         -2.09390        3.99577       -0.46544
H         -0.46776        3.89695       -1.18830
H         -1.89453        3.33304       -2.10252
H         -0.85193        2.06648        0.39434
N          3.64566       -0.61018       -0.62815
C          3.28208       -2.02875       -0.85594
C          4.90994       -0.17389       -1.25039
H          2.84080       -0.00097       -0.91637
H          4.06899       -2.67123       -0.45858
H          2.33993       -2.21872       -0.33994
H          3.16345       -2.19875       -1.92670
H          5.73480       -0.76468       -0.84968
H          4.84575       -0.31585       -2.33004
H          5.06712        0.88085       -1.02515
