36
1sa1msa1ma1tma_58.log	Energy: -1025811.0859955
S          0.81636       -1.63170       -0.46040
O          1.25637       -0.53502       -1.35888
O          1.76787       -2.69631       -0.24423
O          0.30368       -1.00490        0.81807
O         -0.45735       -2.31636       -1.14838
H         -1.14864       -1.63642       -1.30526
S         -2.74068        0.17256        0.24934
O         -2.38241       -0.33069       -1.08431
O         -2.45572        1.58328        0.49494
O         -2.10539       -0.73414        1.35179
H         -1.08684       -0.89792        1.16027
C         -4.46161       -0.13680        0.54418
H         -5.02157        0.47559       -0.16297
H         -4.65114       -1.19690        0.37940
H         -4.68799        0.15045        1.57068
N          3.16569        0.09392        1.67929
H          3.50267        0.14001        2.63577
C          4.16624       -0.56207        0.82931
H          4.42760       -1.57880        1.14741
H          3.77766       -0.63267       -0.18981
H          5.07834        0.04356        0.80917
H          2.31483       -0.46607        1.70043
N          1.13175        1.98302       -0.45074
C          0.75957        2.34754        0.94030
H         -0.27162        2.04386        1.11748
H          1.44663        1.82883        1.60909
H          0.85491        3.43079        1.05094
C          2.54217        2.33835       -0.74778
H          3.16475        1.87267        0.01844
H          2.79775        1.94509       -1.73212
H          2.64763        3.42567       -0.73054
C          0.18787        2.54231       -1.45012
H          0.44624        2.14244       -2.43095
H         -0.82496        2.24210       -1.18068
H          0.27181        3.63147       -1.44670
H          1.08716        0.94099       -0.57034
