30
1sa1msa1a1dma_78.log	Energy: -976494.5927874
S          1.00371        0.99595        0.36505
O          0.75372       -0.48144        0.06918
O         -0.00347        1.50107        1.32602
O          2.40328        1.07280        0.92002
O          0.92522        1.75886       -0.92814
H          3.21510        0.03211        0.36882
H         -0.50789        2.46452       -0.94974
S         -2.69336       -0.87592       -0.14048
O         -3.72704       -1.85266       -0.41609
O         -2.98993        0.51980       -0.52147
O         -1.37246       -1.34557       -0.82443
H         -0.48535       -0.89883       -0.45307
C         -2.30329       -0.87020        1.59716
H         -3.21278       -0.57410        2.12154
H         -2.01105       -1.88213        1.87793
H         -1.49594       -0.15297        1.77249
N         -1.47212        2.77830       -0.60974
H         -2.10491        1.94868       -0.65036
H         -1.84855        3.57115       -1.11859
H         -1.31826        2.98578        0.37940
N          3.79282       -0.80595       -0.08399
C          3.49520       -0.82857       -1.53572
C          3.41922       -2.05266        0.62164
H          4.78034       -0.60443        0.06218
H          2.42325       -0.99150       -1.64938
H          3.75127        0.14207       -1.96061
H          4.06361       -1.62397       -2.02270
H          2.33845       -2.16236        0.52859
H          3.94049       -2.90586        0.18200
H          3.68028       -1.94931        1.67514
