24
1sa1msa2a_09.log	Energy: -927182.3616738
S          2.51194       -0.00198       -0.02771
O          2.57709       -1.35427        0.57785
O          1.41596        0.10146       -1.00556
O          2.53537        1.10957        0.93780
O          3.91091        0.18977       -0.82104
H          4.03069       -0.56263       -1.41612
S         -2.47541        0.00908       -0.19609
O         -2.27558       -1.25597       -0.92862
O         -2.27338        1.24795       -0.96373
O         -1.62917        0.02605        1.07088
C         -4.16600        0.01265        0.37160
H         -4.80864       -0.00380       -0.50926
H         -4.33000       -0.87491        0.98253
H         -4.33422        0.92036        0.95102
N         -0.04001       -2.15189        0.48952
H         -0.26496       -3.05206        0.90273
H         -0.55426       -1.38463        0.97677
H          0.99205       -1.96322        0.51055
H         -0.41515       -2.10153       -0.46515
N          0.03022        2.13679        0.46478
H         -0.59057        1.41575        0.90138
H         -0.08387        1.98347       -0.54131
H         -0.27483        3.07294        0.71295
H          1.02419        1.94996        0.72441
