39
1sa1msa1dma1tma_110.log	Energy: -1050469.0478264
S          0.02332       -1.36499        1.04101
O         -0.24787       -0.12514        0.18772
O          0.96536       -1.05359        2.10545
O         -1.23650       -2.01440        1.38051
O          0.72673       -2.38500        0.01577
H          1.55001       -1.95971       -0.32109
S          3.10265        0.53401       -0.57166
O          4.01784        1.27188       -1.41262
O          2.78541       -0.85608       -0.92532
O          1.74978        1.35726       -0.50289
H          0.98147        0.77051       -0.20530
C          3.67577        0.55252        1.11067
H          4.61819        0.00373        1.13135
H          3.82826        1.59195        1.40069
H          2.92185        0.06340        1.73180
N         -2.80920        2.42956        0.58266
C         -1.62362        3.11315        0.07127
C         -2.57070        1.84137        1.90015
H         -3.56722        3.10103        0.65560
H         -0.82810        2.38087       -0.08784
H         -1.84963        3.58881       -0.88778
H         -1.23539        3.88269        0.75734
H         -1.81151        1.05982        1.81126
H         -2.21785        2.57437        2.64302
H         -3.49037        1.38474        2.27751
N         -2.50313       -0.61551       -1.17607
C         -3.69109       -0.75092       -0.29568
H         -3.43829       -1.44936        0.50226
H         -3.90768        0.23481        0.11674
H         -4.53223       -1.11786       -0.88886
C         -2.67991        0.45392       -2.18726
H         -2.92957        1.37293       -1.65484
H         -1.74385        0.57575       -2.73398
H         -3.48114        0.17072       -2.87361
C         -2.11731       -1.91159       -1.79077
H         -1.17766       -1.77777       -2.32703
H         -1.97184       -2.64158       -0.99468
H         -2.90680       -2.23039       -2.47483
H         -1.68474       -0.33215       -0.57256
