33
1sa1msa1a1tma_57.log	Energy: -1001152.2978727
S          0.39447       -0.42147       -0.49847
O          0.74696       -1.27980        0.63621
O         -0.38193        0.78588       -0.08604
O          1.56458       -0.05722       -1.33212
O         -0.53787       -1.23519       -1.50155
H         -1.42727       -1.35011       -1.08492
S         -3.58227       -0.04173        0.31395
O         -4.84124       -0.19105        1.00567
O         -2.96404       -1.22732       -0.29212
O         -2.55761        0.62184        1.31996
H         -1.64744        0.65754        0.89009
C         -3.73402        1.18793       -0.96571
H         -4.41592        0.79041       -1.71826
H         -4.13754        2.09612       -0.51853
H         -2.74270        1.36015       -1.38877
N          2.19829        2.65931       -0.26232
H          2.15761        2.36097       -1.23353
H          2.25199        3.67299       -0.25387
H          1.28756        2.39967        0.11478
N          3.70031       -0.21073        0.31909
C          3.91805       -1.67761        0.24654
H          3.00709       -2.16871        0.58962
H          4.10918       -1.95040       -0.79162
H          4.77149       -1.94552        0.87347
C          4.83536        0.56152       -0.23670
H          4.99496        0.25702       -1.27185
H          4.56936        1.61833       -0.19625
H          5.73192        0.36002        0.35418
C          3.36057        0.22822        1.69837
H          3.15044        1.29721        1.65967
H          2.47154       -0.31723        2.01561
H          4.20763        0.01426        2.35461
H          2.86412       -0.01905       -0.29459
