40
1sa1msa2eda_76.log	Energy: -1095294.9574650
S          2.55118       -1.26775       -0.34893
O          3.16251       -0.13203       -1.05008
O          1.72920       -0.85714        0.81113
O          1.85930       -2.22456       -1.23623
O          3.75463       -2.10294        0.35419
H          4.29762       -2.49248       -0.34475
S         -2.66450        1.24477       -0.19226
O         -2.14889        2.21931        0.78194
O         -3.60453        0.23675        0.32314
O         -1.50832        0.59593       -0.93371
C         -3.54148        2.16224       -1.44957
H         -4.38939        2.65297       -0.97075
H         -2.86367        2.90050       -1.87853
H         -3.88348        1.46154       -2.21127
H         -0.68902       -3.71925        0.67370
H         -0.14561       -2.17849        1.37615
H         -2.43420       -3.07547        2.23796
H         -2.43894       -1.40602        1.66272
H         -3.94915       -3.50522        0.60064
H         -3.88085       -1.92257        0.13610
H          0.06997       -2.21548       -1.00622
H         -1.61433       -2.51691       -1.13117
C         -0.92323       -2.65676        0.77960
C         -2.32667       -2.44731        1.34796
N         -0.86813       -2.07322       -0.58661
N         -3.32929       -2.75513        0.32590
H         -1.08425       -1.04902       -0.59883
H          0.78230        3.69942        0.26517
H          0.44163        2.68953        1.68458
H          2.75147        3.81093        1.70796
H          2.81792        2.05420        1.86334
H          4.17748        3.44465       -0.00266
H          3.69376        1.89490       -0.26872
H         -0.09614        1.49777       -0.39312
H          1.50200        1.72229       -0.88375
C          1.09007        2.80865        0.81556
C          2.57382        2.87390        1.17339
N          0.88284        1.64107       -0.07072
N          3.37248        2.83524       -0.04985
H          1.15653        0.75730        0.40467
