39
1sa1msa1dma1tma_120.log	Energy: -1050465.7697608
S          0.89650       -0.42458        0.60685
O         -0.23135       -0.28374        1.54251
O          1.12896        0.76660       -0.23199
O          2.15219       -0.87910        1.26274
O          0.56322       -1.64346       -0.37570
H         -0.35905       -1.54173       -0.72767
S         -3.15718       -1.15433       -0.28335
O         -4.13534       -2.21195       -0.41227
O         -1.95307       -1.19772       -1.12998
O         -2.70414       -1.10037        1.23391
H         -1.76737       -0.76196        1.33653
C         -3.92622        0.42175       -0.53249
H         -4.29211        0.43813       -1.56034
H         -4.75510        0.49798        0.17181
H         -3.15971        1.19452       -0.36477
N         -1.45350        2.46318       -0.10583
C         -1.41789        2.96425        1.25770
C         -1.57778        3.51542       -1.09768
H         -0.61374        1.91695       -0.28275
H         -2.38735        3.40809        1.51477
H         -1.22450        2.13439        1.94127
H         -0.64359        3.73563        1.41842
H         -2.54764        4.01581       -0.98774
H         -0.79388        4.29017       -1.02006
H         -1.53495        3.08136       -2.10084
N          4.14668       -0.18743       -0.27600
C          5.35340       -0.92712        0.15476
H          5.55929       -0.69039        1.19905
H          5.16430       -1.99656        0.05849
H          6.20267       -0.63948       -0.46975
C          3.72534       -0.55604       -1.65151
H          3.53061       -1.62842       -1.68193
H          2.80372       -0.02004       -1.87852
H          4.51780       -0.29139       -2.35568
C          4.29815        1.28038       -0.12423
H          3.33475        1.73987       -0.34694
H          4.57220        1.49775        0.90863
H          5.07480        1.63759       -0.80487
H          3.34353       -0.47980        0.37658
