33
1sa1msa1a1tma_46.log	Energy: -1001153.4591480
S         -2.12920       -0.78622       -0.09764
O         -2.58457       -0.61908        1.28077
O         -1.57183        0.40444       -0.74397
O         -1.26573       -1.99270       -0.28246
O         -3.45926       -1.09040       -0.98647
H         -3.97881       -1.75881       -0.52001
S          1.97219       -1.13060        0.00581
O          1.21393       -0.21785        0.86772
O          3.18550       -0.61271       -0.60585
O          1.05183       -1.66789       -1.13643
H          0.06494       -1.78792       -0.81615
C          2.35507       -2.58237        0.95765
H          1.41868       -2.99309        1.33752
H          2.86044       -3.29236        0.30327
H          3.00746       -2.27761        1.77647
N         -0.65663        1.53707        2.43425
H          0.08600        0.85533        2.56871
H         -1.47534        0.98781        2.16836
H         -0.85656        1.94805        3.34078
N          0.45008        2.29781       -0.38008
C          0.83346        1.91785       -1.76559
H          1.67515        1.22604       -1.72359
H         -0.02163        1.43149       -2.23216
H          1.11817        2.82275       -2.30666
C         -0.69141        3.24848       -0.36392
H         -1.52370        2.78829       -0.89393
H         -0.96646        3.41002        0.67771
H         -0.37871        4.17769       -0.84532
C          1.60708        2.81826        0.38894
H          1.27235        2.99676        1.41017
H          2.39452        2.06575        0.38140
H          1.95246        3.74214       -0.07994
H          0.12490        1.43873        0.09470
