23
1sa1msa1ma_66.log	Energy: -916314.0677508
S         -2.32171       -0.24215       -0.08365
O         -1.51786       -0.72594       -1.19094
O         -3.74723       -0.40114       -0.06797
O         -1.75986       -0.78950        1.27121
O         -1.96298        1.33168       -0.01844
H         -0.75327       -0.79196        1.25226
H         -2.60352        1.78195        0.55188
S          1.75733       -1.12764        0.05926
O          2.11009       -2.52431        0.17939
O          0.81149       -0.57399        1.05145
O          1.18241       -0.81202       -1.39165
H          0.19425       -0.81403       -1.38552
C          3.19454       -0.10002        0.04179
H          3.70494       -0.26478        0.99161
H          3.82035       -0.41843       -0.79221
H          2.84323        0.93383       -0.05946
N          1.20710        2.48387        0.21020
H          0.38592        2.06263       -0.21286
C          1.29529        3.90069       -0.13776
H          0.42149        4.50048        0.15672
H          2.17963        4.33670        0.33517
H          1.42287        3.99852       -1.21908
H          1.09720        2.36232        1.21185
