35
1sa1msa1ma1eda_15.log	Energy: -1035902.5570249
S          2.84015        0.40607       -0.18071
O          2.98358       -0.80128       -1.00310
O          2.50995        1.62737       -0.94255
O          1.95924        0.21209        0.99403
O          4.28690        0.68509        0.50629
H          4.92066        0.87802       -0.19795
S         -2.34545       -1.13590       -0.12482
O         -3.05043       -0.15140        0.71099
O         -1.83888       -2.32512        0.61572
O         -1.25038       -0.52609       -0.94842
C         -3.53633       -1.76527       -1.29557
H         -4.33662       -2.24778       -0.73395
H         -3.92497       -0.92533       -1.87182
H         -3.03610       -2.48123       -1.94761
N          0.87101       -2.24011        0.33470
H          1.17444       -1.35550        0.79053
H         -0.15634       -2.36959        0.49606
C          1.69636       -3.37643        0.78958
H          1.38843       -4.28149        0.26616
H          2.74197       -3.15561        0.57630
H          1.55235       -3.50877        1.86136
H          1.01570       -2.05292       -0.65963
H         -0.49907        3.96371       -0.26687
H         -1.12594        3.07893       -1.67761
H         -2.92938        3.84472       -0.00928
H         -2.94007        2.11256       -0.36587
H         -2.50916        3.27397        2.15739
H         -2.56728        1.67289        1.73290
H          0.80693        1.96465       -0.55713
H         -0.16101        1.84775        0.80736
C         -1.01856        3.05854       -0.59108
C         -2.36971        2.91212        0.11676
N         -0.17290        1.90427       -0.21827
N         -2.15209        2.57578        1.52021
H         -0.58233        0.99981       -0.55031
