35
1sa1msa1ma1eda_90.log	Energy: -1035889.1722730
S          0.16818       -2.18485       -0.25086
O          0.78892       -1.50795       -1.41542
O          0.80955       -1.90214        1.03155
O         -1.30230       -2.01134       -0.22797
O          0.44226       -3.76286       -0.49002
H          0.15064       -3.99192       -1.38308
S          2.07611        1.48985       -0.01091
O          0.80362        1.47289        0.72370
O          2.72662        2.76616       -0.20712
O          1.86058        0.85621       -1.44139
H          1.40932       -0.04419       -1.40612
C          3.18282        0.35208        0.79031
H          2.67880       -0.61299        0.88350
H          4.08855        0.28546        0.18779
H          3.40456        0.76906        1.77362
N         -1.41071        0.05826        1.69322
H         -2.10986        0.80250        1.40554
H         -1.55683       -0.75690        1.07107
C         -1.47777       -0.33397        3.11297
H         -0.72869       -1.10410        3.29753
H         -1.27919        0.53679        3.73814
H         -2.47116       -0.72566        3.33244
H         -0.47811        0.42763        1.45043
H         -3.05646        2.98343       -1.34535
H         -1.58006        3.01457       -0.36005
H         -1.39150        1.54210       -2.38415
H         -1.05668        0.72561       -0.87756
H         -3.31635        0.26112       -2.60286
H         -2.52413       -0.75478       -1.57501
H         -3.60528        2.67805        0.96996
H         -3.87465        1.27401        0.15036
C         -2.41155        2.38320       -0.68728
C         -1.86003        1.18288       -1.45929
N         -3.15091        1.90553        0.49426
N         -2.90215        0.18154       -1.68242
