27
1sa1msa1a1ma_139.log	Energy: -951824.2330260
S         -2.55857       -0.41086       -0.29990
O         -1.72179       -1.20643       -1.17186
O         -3.96861       -0.71501       -0.15126
O         -1.96795       -0.41732        1.16511
O         -2.40079        1.09075       -0.75916
H         -0.96492       -0.40028        1.16312
H         -3.15483        1.63742       -0.34207
S          1.72364       -0.57254        0.34427
O          0.63611       -0.43089        1.33498
O          3.05333       -0.79970        0.99099
O          1.80357        0.57964       -0.61082
H          3.17849        1.43319       -0.28904
C          1.36148       -2.01598       -0.62648
H          1.34254       -2.87025        0.05090
H          0.38370       -1.86594       -1.08814
H          2.14447       -2.13160       -1.37600
N         -4.52456        2.22507        0.37701
H         -5.09306        2.86069       -0.17193
H         -4.39595        2.62427        1.30064
H         -5.02743        1.34503        0.47647
N          4.14043        1.46479        0.15939
H          4.24429        2.29494        0.73743
C          5.21677        1.31095       -0.84103
H          6.18158        1.23449       -0.34012
H          5.02105        0.39655       -1.40012
H          5.21188        2.16263       -1.52074
H          4.03548        0.60611        0.75614
