28
1sa1msa1eda_76.log	Energy: -975730.8338440
S         -2.18699       -0.70422        0.03424
O         -1.53494       -0.55007        1.33354
O         -2.30165        0.54028       -0.75974
O         -1.63677       -1.83265       -0.75718
O         -3.71382       -1.10121        0.39395
H         -4.24466       -1.02823       -0.41114
S          0.78270        2.05911       -0.12472
O          1.76858        3.08323       -0.39324
O          1.22487        0.65674       -0.15295
O         -0.39024        2.25033       -1.15970
H         -1.10737        1.55012       -1.04762
C          0.00998        2.34744        1.45013
H          0.79397        2.28185        2.20568
H         -0.42409        3.34698        1.43076
H         -0.74662        1.57537        1.61035
H          1.63804       -3.18901       -1.32016
H          1.73194       -1.42425       -1.48232
H          3.43726       -3.24154        0.30291
H          3.97594       -2.24239       -1.04905
H          4.33433       -1.24362        1.21016
H          3.28102       -0.30253        0.35937
H          0.94454       -2.72842        1.03665
H          0.94262       -1.11571        0.65794
C          1.86249       -2.25998       -0.79280
C          3.27028       -2.28431       -0.20588
N          0.84493       -2.06481        0.27066
N          3.42036       -1.22015        0.77526
H         -0.13014       -2.11423       -0.12341
