41
1sa1msa1tma1eda_88.log	Energy: -1085213.1647778
S          1.03306        0.52201        0.65245
O          0.35577       -0.15460       -0.63296
O          1.88813        1.56646        0.05647
O         -0.04607        1.01803        1.51173
O          1.85107       -0.55114        1.29842
H         -1.71354        1.09610        0.54181
H          3.06007       -0.79634        0.42984
S         -2.77676       -1.67894       -0.04247
O         -3.34870       -0.83136       -1.13156
O         -2.98035       -1.08772        1.28808
O         -1.34804       -2.03958       -0.31746
H         -0.28552       -0.91802       -0.41388
C         -3.65521       -3.22967       -0.10310
H         -4.71041       -3.02345        0.07706
H         -3.50978       -3.67096       -1.08906
H         -3.25086       -3.87699        0.67534
H         -3.12914        3.20381       -0.97346
H         -3.25136        2.90053        0.77808
H         -1.61433        4.77862        0.19004
H         -0.87045        3.44769        1.08443
H         -0.23249        4.26874       -1.55705
H          0.51168        3.10879       -0.63457
H         -2.86475        0.80008       -0.64149
H         -1.39526        1.50995       -1.01472
C         -2.58332        2.87704       -0.08498
C         -1.32241        3.72495        0.12745
N         -2.14827        1.48372       -0.31266
N         -0.38276        3.46815       -0.95976
N          3.92599       -0.92285       -0.21039
C          4.84611        0.19047        0.12173
H          4.30060        1.12528       -0.01304
H          5.14666        0.09567        1.16572
H          5.72348        0.14695       -0.52895
C          4.50596       -2.24838        0.09250
H          4.76056       -2.28953        1.15210
H          3.76280       -3.01528       -0.12762
H          5.40083       -2.40779       -0.51436
C          3.43914       -0.83249       -1.60984
H          2.68246       -1.60114       -1.76799
H          2.97782        0.14547       -1.74761
H          4.27930       -0.97256       -2.29497
