36
1sa1msa1ma1tma_61.log	Energy: -1025810.5779513
S         -0.58867       -1.54579        0.35837
O         -0.81070       -0.52216       -0.70076
O          0.18473       -0.92562        1.48719
O         -1.77985       -2.24750        0.79726
O          0.35873       -2.64997       -0.29031
H          1.17089       -2.20306       -0.62086
S          2.88433        0.20457       -0.36387
O          2.53276        1.35581       -1.17997
O          2.58159       -1.13222       -0.88540
O          2.27657        0.35510        1.07829
H          1.41559       -0.22540        1.22463
C          4.62071        0.27302        0.00331
H          5.14826        0.19482       -0.94776
H          4.83097        1.22846        0.48336
H          4.86918       -0.56172        0.65767
N         -4.06633       -0.33607       -0.11180
H         -3.47540       -1.03758        0.33446
C         -4.06684       -0.58026       -1.55739
H         -4.46905       -1.56043       -1.84662
H         -4.65621        0.19158       -2.06494
H         -3.03715       -0.52192       -1.91950
H         -5.00138       -0.46494        0.26216
N         -1.39464        1.89756        0.23463
C         -0.10560        2.62988        0.26713
H          0.56113        2.14183        0.97764
H          0.35658        2.58674       -0.71924
H         -0.29068        3.66451        0.56555
C         -2.36628        2.50791       -0.70414
H         -1.91874        2.53799       -1.69821
H         -3.25999        1.88107       -0.70471
H         -2.59996        3.52128       -0.36842
C         -1.97729        1.72465        1.58994
H         -2.91745        1.18255        1.47625
H         -1.28019        1.13967        2.19146
H         -2.14194        2.70889        2.03533
H         -1.18713        0.92603       -0.13343
