33
1sa1msa1a1tma_83.log	Energy: -1001134.1569882
S         -1.90105       -0.79978       -0.50774
O         -0.78361       -0.44792       -1.37812
O         -3.14421       -1.24179       -1.09336
O         -1.43690       -1.94657        0.47470
O         -2.15257        0.43135        0.41924
H         -0.49081       -1.80707        0.75036
H         -3.13084        0.39556        0.79598
S          2.25967       -1.38090        0.16123
O          2.91522       -2.62519       -0.16851
O          1.09444       -1.41324        1.06087
O          1.84271       -0.61023       -1.16058
H          0.85141       -0.54553       -1.24835
C          3.44392       -0.24904        0.84179
H          3.83745       -0.70699        1.74976
H          4.23546       -0.11138        0.10499
H          2.93919        0.69149        1.05910
N         -4.61960        0.24083        1.19858
H         -4.98744       -0.38296        0.48314
H         -5.15420        1.10348        1.17461
H         -4.76330       -0.19678        2.10335
N          0.74340        3.26206        0.15200
C          2.05213        3.12332       -0.45914
H          2.18930        3.89460       -1.22296
H          2.83140        3.25999        0.29905
H          2.19727        2.13607       -0.93998
C          0.55639        2.29388        1.21637
H          1.33084        2.42997        1.97989
H         -0.41720        2.44307        1.69066
H          0.58842        1.24771        0.85979
C         -0.31105        3.15540       -0.84387
H         -1.28373        3.30329       -0.36614
H         -0.17907        3.93239       -1.60313
H         -0.32767        2.17098       -1.34483
