33
1sa1msa1ma1dma_133.log	Energy: -1001151.8835533
S         -1.33105       -1.61145        0.05708
O         -0.08398       -1.71846        0.87313
O         -2.50142       -1.36746        0.89959
O         -1.17623       -0.72135       -1.09586
O         -1.53375       -3.07479       -0.62389
H         -1.78034       -3.69476        0.07588
S          2.67132        0.05469       -0.04338
O          2.72214        0.73838        1.24531
O          1.83695        0.69077       -1.06887
O          2.28523       -1.45155        0.11804
H          1.28895       -1.57810        0.38499
C          4.31541       -0.13878       -0.68293
H          4.72188        0.86276       -0.82586
H          4.90392       -0.69368        0.04716
H          4.25413       -0.67326       -1.63022
N         -3.04732        1.59154       -0.99105
H         -3.37838        2.15643       -1.76656
C         -4.09068        1.44816        0.03469
H         -5.04519        1.09060       -0.36921
H         -3.74831        0.72371        0.77647
H         -4.25845        2.41160        0.52453
H         -2.79706        0.67408       -1.36242
N         -0.49482        1.89413        0.06217
C          0.19201        3.16558       -0.23525
C         -0.58344        1.59963        1.51251
H         -1.47753        1.88536       -0.35687
H          1.19086        3.13890        0.20133
H          0.27349        3.27987       -1.31598
H         -0.38440        3.99077        0.18720
H          0.42335        1.45922        1.91000
H         -1.07810        2.43824        2.00644
H         -1.16655        0.69006        1.65593
H          0.01700        1.13504       -0.41340
