42
1sa1msa2tma_16.log	Energy: -1075139.1813329
S         -1.18445       -0.33819       -0.98807
O          0.01468        0.01247       -1.74972
O         -2.32090       -0.88785       -1.73163
O         -0.79808       -1.49396        0.04399
O         -1.63420        0.81965       -0.11734
H          0.08778       -1.28518        0.48612
H         -3.03146        0.47026        0.34258
S          2.76643       -1.37055        0.47287
O          1.47861       -0.95102        1.12251
O          3.65225       -2.13779        1.34186
O          3.42113       -0.16665       -0.14754
H          2.55619        1.10935       -0.10791
C          2.30579       -2.40237       -0.90934
H          1.79227       -3.28303       -0.52187
H          1.65067       -1.82548       -1.56445
H          3.22325       -2.69089       -1.42298
N         -4.03909        0.19317        0.64257
C         -4.01380       -1.25863        0.95480
H         -3.72178       -1.79449        0.05183
H         -3.26425       -1.43752        1.72595
H         -5.00324       -1.57052        1.29949
C         -4.37948        1.00715        1.82764
H         -3.67347        0.77744        2.62643
H         -4.29905        2.06351        1.56821
H         -5.39782        0.77969        2.15294
C         -4.91491        0.48762       -0.51653
H         -4.87296        1.55792       -0.72240
H         -4.52468       -0.06066       -1.37451
H         -5.94083        0.18898       -0.28570
N          2.23542        2.13007       -0.00536
C          3.45174        2.83999        0.44926
H          3.77423        2.40705        1.39634
H          4.23942        2.69607       -0.29062
H          3.23243        3.90391        0.57032
C          1.77173        2.60627       -1.32958
H          2.59547        2.51891       -2.03939
H          0.94510        1.97021       -1.64991
H          1.45822        3.65035       -1.24514
C          1.15785        2.18492        1.01215
H          0.26079        1.71060        0.61253
H          1.48934        1.63858        1.89526
H          0.95689        3.23339        1.25217
