33
1sa1msa1ma1dma_105.log	Energy: -1001151.8811437
S         -1.22730        0.75488        0.52642
O         -1.62101       -0.31881        1.42938
O         -0.24644        0.28759       -0.53045
O         -2.49482        1.23719       -0.27639
O         -0.69135        1.98249        1.16240
H         -3.10043        0.41521       -0.50222
H          0.74523        2.34606        0.54845
S          2.75592       -0.99860        0.14078
O          2.87610       -0.95681        1.58705
O          3.04338        0.26490       -0.57213
O          1.37602       -1.55387       -0.32402
H          0.63387       -0.79888       -0.35677
C          3.83629       -2.24719       -0.51130
H          3.57425       -3.19571       -0.04279
H          3.70707       -2.29195       -1.59194
H          4.85422       -1.95793       -0.24890
N          1.61414        2.57237       -0.02046
H          2.17806        3.25107        0.48574
C          1.19700        3.06954       -1.35248
H          2.07777        3.27491       -1.96093
H          0.59284        2.28698       -1.81039
H          0.59887        3.97182       -1.22796
H          2.16565        1.69584       -0.13073
N         -3.96771       -0.85672       -0.75993
C         -4.67948       -1.16118        0.48655
C         -3.06727       -1.93932       -1.17256
H         -4.64048       -0.67827       -1.50002
H         -3.94353       -1.23014        1.29096
H         -5.36878       -0.34632        0.71884
H         -5.24118       -2.10338        0.42397
H         -2.31534       -2.07954       -0.39235
H         -3.60036       -2.88707       -1.32894
H         -2.55506       -1.65515       -2.09446
