29
1sa1msa1tma_33.log	Energy: -965648.9622914
S         -0.66813        1.22323        0.06025
O          0.19573        2.33893        0.41223
O         -0.48312        0.00499        0.88365
O         -2.11696        1.56082       -0.07459
O         -0.31553        0.77148       -1.45946
H          0.61825        0.47704       -1.47361
S          3.05079       -0.58862       -0.04475
O          3.04442       -1.99968        0.26006
O          2.32985       -0.08230       -1.21429
O          4.59859       -0.15249       -0.27789
H          4.63611        0.41271       -1.06271
C          2.62341        0.34569        1.39744
H          1.59007        0.08285        1.63978
H          3.31820        0.06220        2.18788
H          2.68044        1.40705        1.15636
N         -3.41420       -0.69235        0.01163
C         -3.41746       -1.13068        1.42770
H         -2.38134       -1.16291        1.76651
H         -3.96932       -0.39959        2.01960
H         -3.89178       -2.11236        1.50547
C         -4.77584       -0.45320       -0.51187
H         -5.27041        0.29093        0.11330
H         -4.69785       -0.07204       -1.53057
H         -5.34327       -1.38718       -0.50294
C         -2.64351       -1.62573       -0.84846
H         -2.55067       -1.18707       -1.84221
H         -1.64846       -1.73917       -0.41857
H         -3.16385       -2.58570       -0.89704
H         -2.89247        0.25538       -0.01730
