29
1sa1msa1tma_50.log	Energy: -965630.4664937
S          0.65044        2.24362       -0.08700
O          1.15526        3.55652       -0.36866
O          0.22290        1.35606       -1.15397
O          1.77544        1.39450        0.68736
O         -0.48901        2.38878        0.98003
H          2.26024        1.97800        1.28995
H         -0.99222        1.52751        1.08154
S         -2.34011       -0.62561       -0.00037
O         -3.52338       -0.00609       -0.55172
O         -1.66474        0.05108        1.12213
O         -1.25570       -0.90717       -1.12933
H         -0.65582       -0.12448       -1.21870
C         -2.68757       -2.29235        0.48683
H         -3.46898       -2.23905        1.24541
H         -3.04054       -2.83207       -0.39183
H         -1.77798       -2.73481        0.89070
N          2.46128       -2.43407       -0.09820
C          2.23507       -1.78688       -1.37979
H          3.12159       -1.89868       -2.01100
H          1.39193       -2.26246       -1.88991
H          2.01633       -0.70800       -1.27776
C          1.27281       -2.38151        0.73169
H          0.44762       -2.87333        0.20646
H          1.45078       -2.91561        1.67039
H          0.96097       -1.34772        0.97413
C          3.60779       -1.86216        0.58365
H          3.78175       -2.39102        1.52578
H          4.50125       -1.97360       -0.03791
H          3.47428       -0.78654        0.80698
