27
1sa1msa1a1ma_32.log	Energy: -951834.5771745
S         -1.78820        0.17788       -0.36682
O         -1.11303       -1.15802       -0.47757
O         -1.38514        1.11718       -1.42517
O         -3.32026       -0.11743       -0.59237
O         -1.61918        0.74253        0.99297
H         -3.56988       -0.91507       -0.01005
H         -0.33253        2.03885        0.89516
S          2.30629       -0.78156        0.12127
O          2.03143       -1.27330        1.45958
O          2.39740        0.68371       -0.03748
O          1.32259       -1.37191       -0.93617
H          0.30425       -1.25302       -0.71175
C          3.83077       -1.46256       -0.48272
H          4.62265       -1.08834        0.16658
H          3.76270       -2.54845       -0.42402
H          3.97780       -1.13026       -1.50970
N         -3.59715       -2.26213        0.96459
H         -4.30086       -2.97592        0.81250
H         -3.59504       -2.01372        1.94856
H         -2.68265       -2.64806        0.73946
N          0.32665        2.49293        0.23251
H          1.16949        1.88455        0.19401
C          0.63263        3.90021        0.54554
H          1.30294        4.30099       -0.21450
H         -0.29339        4.47457        0.56073
H          1.11497        3.95475        1.52111
H         -0.16741        2.35435       -0.66622
