33
1sa1msa1ma1dma_138.log	Energy: -1001152.2384350
S         -2.10420       -1.14058       -0.38421
O         -2.95472        0.05422       -0.44055
O         -2.43139       -2.22125       -1.29910
O         -0.66268       -0.74342       -0.36034
O         -2.28047       -1.75506        1.12834
H         -2.95085       -2.44889        1.07604
S          2.47542       -0.56737        0.07345
O          2.41850        0.16880        1.33056
O          2.19663        0.20414       -1.14134
O          1.55312       -1.84184        0.11618
H          0.58878       -1.55678       -0.07223
C          4.05529       -1.36041       -0.08153
H          4.80703       -0.57093       -0.09391
H          4.19556       -2.01275        0.78010
H          4.06708       -1.92632       -1.01232
N         -1.65711        1.89366        1.53245
H         -2.11626        2.70552        1.93255
C         -0.92719        1.14516        2.56794
H         -1.57700        0.77865        3.37004
H         -0.43688        0.28787        2.10370
H         -0.15197        1.78271        3.00006
H         -2.38131        1.30650        1.11288
N         -0.07434        2.03727       -0.70486
C          1.04983        2.97260       -0.51598
C         -0.95267        2.34308       -1.85256
H          0.28736        1.08159       -0.81528
H          0.64980        3.97227       -0.33438
H          1.63688        2.63694        0.33940
H          1.68098        2.97243       -1.40528
H         -1.36049        3.34833       -1.72884
H         -0.37842        2.28623       -2.77877
H         -1.76482        1.61461       -1.85997
H         -0.67833        2.02527        0.18809
