27
1sa1msa1a1ma_119.log	Energy: -951827.8897559
S          0.94504       -0.78544       -0.05825
O         -0.20097       -1.68976        0.16303
O          2.15313       -1.43166       -0.55910
O          0.51211        0.20187       -1.28451
O          1.18127        0.12936        1.08979
H         -0.42018        0.49205       -1.13260
H          1.92334        1.55242        0.47517
S         -3.06794        0.16237       -0.06964
O         -3.92462       -0.46976       -1.05171
O         -1.96544        1.00578       -0.56480
O         -2.49228       -0.87994        0.95975
H         -1.57315       -1.21937        0.67675
C         -4.05817        1.14715        1.02708
H         -4.53618        1.91564        0.41908
H         -4.80574        0.49683        1.48109
H         -3.40790        1.58829        1.78137
N          2.46221        2.09108       -0.24690
H          2.62857        3.05522        0.02286
H          1.89109        2.03733       -1.09192
H          3.38844        1.50177       -0.39687
N          4.46467        0.32377       -0.41028
H          3.88592       -0.43820       -0.77526
C          4.80329        0.01109        0.98805
H          5.39505       -0.90432        1.08715
H          5.36095        0.84196        1.42899
H          3.87148       -0.12477        1.54248
H          5.30021        0.39358       -0.98232
