35
1sa1msa1ma1eda_207.log	Energy: -1035886.3901344
S         -0.14159       -1.31011       -0.69993
O          0.36363       -0.17860       -1.52226
O         -0.28862       -0.90265        0.72616
O         -1.35456       -1.93526       -1.23807
O          0.96830       -2.44779       -0.75288
H          1.83389       -2.04023       -0.50939
S          3.22990        0.41080        0.38451
O          4.51896        1.05973        0.45697
O          3.16668       -0.99899       -0.01941
O          2.31213        1.26407       -0.58314
H          1.56692        0.70311       -0.96720
C          2.40236        0.55950        1.95212
H          2.99658        0.00541        2.67988
H          2.36094        1.61725        2.21206
H          1.40586        0.12542        1.84432
N         -3.03909       -1.08915        0.77933
H         -2.09666       -0.97325        1.19075
H         -3.42012       -0.11501        0.55394
C         -3.94664       -1.89243        1.61754
H         -4.90166       -2.01226        1.10559
H         -3.50519       -2.87272        1.79716
H         -4.10696       -1.38439        2.56877
H         -2.80057       -1.54952       -0.11662
H         -3.30275        3.51779        0.21484
H         -2.87990        2.49270        1.59661
H         -0.89215        3.06445        0.18005
H         -1.16154        1.33090        0.29236
H         -1.56926        2.97437       -2.05438
H         -1.02450        1.42711       -1.91072
H         -4.84441        1.74125        0.22891
H         -3.76065        1.42674       -0.97009
C         -2.95088        2.51739        0.50376
C         -1.57572        2.25769       -0.11705
N         -3.88278        1.47232        0.04543
N         -1.70350        2.09870       -1.56295
