33
1sa1msa1a1tma_49.log	Energy: -1001153.2780112
S          1.65193       -1.59555        0.10942
O          2.60328       -1.00050       -0.82708
O          2.17478       -2.53823        1.08246
O          0.75374       -0.53965        0.68951
O          0.56365       -2.44362       -0.79436
H          0.90078       -3.34693       -0.86407
S         -2.50729       -0.09108       -0.10422
O         -1.60947        0.73996       -0.90736
O         -3.79489        0.43764        0.29160
O         -1.75216       -0.52410        1.22287
H         -0.76753       -0.64810        1.04040
C         -2.72498       -1.63888       -0.95117
H         -1.73640       -2.06813       -1.12401
H         -3.33575       -2.28407       -0.31981
H         -3.23275       -1.42542       -1.89244
N          0.32177        1.63432        2.68147
H          0.54105        1.94385        3.62280
H          0.79399        0.74575        2.52974
H         -0.67356        1.42658        2.66160
N          1.11235        1.96432       -0.56572
C          1.18732        1.66237       -2.01974
H          1.79758        0.76783       -2.14787
H          0.17588        1.48239       -2.38154
H          1.63498        2.51823       -2.52961
C          0.23035        3.12542       -0.27843
H         -0.75551        2.91797       -0.69143
H          0.16827        3.23057        0.80530
H          0.66944        4.01337       -0.73904
C          2.46258        2.14791        0.02913
H          2.33298        2.30907        1.09937
H          3.04231        1.24327       -0.15632
H          2.93460        3.01525       -0.43742
H          0.71344        1.12121       -0.10877
