36
1sa1msa1ma1tma_54.log	Energy: -1025813.5263171
S         -1.10453       -1.67954        0.09485
O         -1.01599       -0.39867       -0.59754
O         -2.39558       -2.28061        0.30907
O         -0.20090       -2.72303       -0.65564
O         -0.41289       -1.51561        1.50786
H          0.41625       -0.95756        1.39715
S          2.49848       -0.25469       -0.20036
O          1.59541        0.05562        0.97528
O          2.56358        0.89035       -1.11878
O          2.14695       -1.55365       -0.82101
H          0.70312       -2.31541       -0.81496
C          4.11957       -0.47988        0.50260
H          4.41215        0.44843        0.99321
H          4.07220       -1.30045        1.21833
H          4.80389       -0.71833       -0.31190
N         -3.98162        0.50814        0.47199
H         -3.73046       -0.45998        0.65720
C         -4.20785        0.68981       -0.96129
H         -5.03544        0.09511       -1.37266
H         -4.41130        1.74581       -1.16972
H         -3.29650        0.40731       -1.49515
H         -4.82965        0.70106        0.99420
N         -0.03990        2.22529        0.15618
C         -1.24455        2.34069        1.01997
H         -2.00684        1.61865        0.70839
H         -0.94986        2.13780        2.05057
H         -1.63297        3.35874        0.93836
C          1.04820        3.13828        0.58893
H          1.28798        2.92320        1.63004
H          1.92039        2.94576       -0.03580
H          0.70529        4.16955        0.48287
C         -0.36001        2.41196       -1.28348
H          0.53652        2.17816       -1.85825
H         -1.15904        1.72306       -1.54879
H         -0.66984        3.44771       -1.43845
H          0.33472        1.26469        0.27193
