30
1sa1msa1a1dma_107.log	Energy: -976486.9864878
S         -0.67620       -1.04987       -0.20750
O         -0.14472        0.18624       -0.84383
O         -1.91156       -1.53376       -0.83777
O          0.39276       -2.19817       -0.46631
O         -0.81493       -0.88288        1.26300
H          1.29475       -1.85197       -0.26078
H         -2.50790       -0.95252        1.63809
S          3.21203        0.36676       -0.07890
O          4.01765        0.64644       -1.25002
O          2.75782       -1.01418        0.13735
O          1.96985        1.33517        0.00296
H          1.11780        0.88145       -0.32959
C          4.09828        0.88323        1.37163
H          5.01826        0.29894        1.40597
H          4.32180        1.94519        1.27105
H          3.47749        0.68882        2.24537
N         -3.50464       -1.00553        1.32030
H         -4.13030       -1.35993        2.03628
H         -3.44447       -1.63061        0.50809
H         -3.78314       -0.02140        0.94515
N         -3.92809        1.43206        0.16355
C         -4.02390        1.12017       -1.27084
C         -2.72712        2.22054        0.47844
H         -4.74894        1.96354        0.44007
H         -3.20200        0.45354       -1.54571
H         -4.96866        0.60659       -1.46828
H         -3.97356        2.02217       -1.89470
H         -1.83824        1.65769        0.18274
H         -2.71521        3.18223       -0.05110
H         -2.68034        2.40583        1.55453
