39
1sa1msa1dma1tma_11.log	Energy: -1050490.0080671
S         -1.32546       -1.76621       -0.61504
O         -0.41344       -2.68477       -1.29548
O         -1.07164       -0.28715       -1.30926
O         -2.75670       -1.95667       -0.78137
O         -0.92162       -1.54070        0.81406
H          0.75204       -1.86275        0.89062
S          1.70350        1.60081       -0.38693
O          2.15234        1.48923        1.01310
O          0.46199        2.37803       -0.57572
O          1.59953        0.24384       -1.04184
H         -0.09709       -0.12037       -1.36781
C          2.98615        2.45339       -1.28765
H          3.91084        1.88383       -1.19325
H          2.68179        2.52685       -2.33172
H          3.10046        3.44416       -0.84701
N          1.79524       -1.83143        0.77697
C          2.28645       -3.10745        0.21468
C          2.42019       -1.44439        2.05865
H          1.91308       -1.06404        0.07890
H          2.11088       -3.90520        0.93835
H          1.72905       -3.31020       -0.69903
H          3.35538       -3.01871        0.01255
H          2.16542       -2.18684        2.81673
H          3.50278       -1.39780        1.93041
H          2.05587       -0.45505        2.33285
N         -2.22743        1.44582        0.56343
C         -1.42128        1.52473        1.81111
H         -1.18159        0.50396        2.10944
H         -0.50558        2.07464        1.59769
H         -2.01544        2.02875        2.57704
C         -2.49106        2.78579       -0.01858
H         -1.53382        3.26959       -0.20507
H         -3.02960        2.65487       -0.95764
H         -3.09678        3.36202        0.68441
C         -3.48635        0.68375        0.78043
H         -3.97440        0.52719       -0.18091
H         -3.23998       -0.28741        1.20693
H         -4.12667        1.25872        1.45309
H         -1.66815        0.91028       -0.13769
