26
1sa1msa1dma_05.log	Energy: -941000.4609250
S          1.90566       -1.09411       -0.05865
O          0.89251       -0.56280       -1.00872
O          2.86680       -2.03571       -0.59699
O          2.46632        0.01463        0.74538
O          0.96904       -1.96000        0.98284
H          1.47970       -2.73605        1.24943
S         -2.39507       -0.16222       -0.08086
O         -3.77035        0.02187       -0.48132
O         -1.62342        1.02396        0.32710
O         -1.64205       -0.88763       -1.26028
H         -0.63828       -0.83529       -1.15925
C         -2.30267       -1.33405        1.25221
H         -2.78974       -0.87982        2.11577
H         -2.83063       -2.23510        0.94007
H         -1.24997       -1.54253        1.45169
N          0.88372        2.13974        0.12619
C          0.81576        3.20090        1.15068
C          1.23809        2.61151       -1.23029
H          1.56450        1.39624        0.41756
H          0.05908        3.93209        0.86365
H          0.54411        2.74726        2.10349
H          1.79028        3.68362        1.23625
H          0.48944        3.32933       -1.56859
H          2.22187        3.08176       -1.19901
H          1.25825        1.74484       -1.89050
H         -0.03200        1.65200        0.08844
