35
1sa1msa1ma1eda_98.log	Energy: -1035888.4615683
S         -0.24309       -1.74904       -0.10762
O          0.17076       -1.16816        1.18536
O         -0.28439       -0.68644       -1.17202
O          0.61167       -2.87507       -0.55023
O         -1.68109       -2.33522        0.02712
H         -2.33618       -1.63478        0.48623
S          1.53684        2.06440       -0.06220
O          1.83241        3.45915       -0.30825
O          2.54744        1.06901       -0.46620
O          0.16818        1.71962       -0.73743
H          0.01395        0.69760       -0.88681
C          1.22060        1.82030        1.67062
H          2.15468        2.01274        2.20004
H          0.45718        2.53746        1.97351
H          0.88216        0.79016        1.80722
N          2.95090       -1.61550       -0.71932
H          2.06780       -2.19242       -0.82637
H          3.61472       -1.84418       -1.45524
C          3.50408       -1.84426        0.63759
H          4.35830       -1.18725        0.79821
H          2.71033       -1.61641        1.34963
H          3.79513       -2.88940        0.73815
H          2.68637       -0.61242       -0.80460
H         -3.28666        1.47818        1.51492
H         -1.71185        0.80544        1.04678
H         -2.68128        2.07025       -0.82684
H         -2.54745        0.35951       -1.22863
H         -5.02575        1.77244       -0.57689
H         -4.70990        0.77031       -1.82857
H         -3.26545       -0.80657        2.14334
H         -4.19979       -0.70316        0.78472
C         -2.78778        0.74825        0.86190
C         -3.08284        1.07494       -0.59763
N         -3.24800       -0.62191        1.14508
N         -4.52010        0.93573       -0.84764
