39
1sa1msa1dma1tma_57.log	Energy: -1050473.6618094
S         -0.06930        1.92047        0.27330
O         -0.52188        1.37522        1.57676
O          0.05735        0.77420       -0.70370
O         -0.83126        3.03614       -0.24386
O          1.41958        2.46780        0.48681
H          1.99015        1.72934        0.79633
S          3.02802       -0.77884       -0.20613
O          2.72951       -2.17408        0.07599
O          2.88605        0.17111        0.90581
O          2.20377       -0.26524       -1.44021
H          1.32528        0.21006       -1.15090
C          4.67449       -0.65514       -0.85827
H          5.35175       -1.01838       -0.08476
H          4.73693       -1.27862       -1.74993
H          4.87349        0.39017       -1.09200
N         -1.45986       -1.12480        1.19636
C         -0.48400       -2.11890        0.70720
C         -2.15659       -1.51200        2.43538
H         -0.98680       -0.20103        1.35581
H         -0.98491       -3.07859        0.56143
H         -0.07640       -1.76351       -0.23743
H          0.33128       -2.22882        1.42311
H         -2.72241       -2.43075        2.26674
H         -1.42636       -1.67200        3.23054
H         -2.83296       -0.70675        2.72449
N         -3.29448       -0.54103       -0.80227
C         -2.58731       -0.67458       -2.07829
H         -1.69729       -0.04148       -2.06110
H         -2.27831       -1.71508       -2.21842
H         -3.22723       -0.38363       -2.92686
C         -4.45181       -1.42855       -0.74346
H         -4.13145       -2.46677       -0.87344
H         -4.94234       -1.33238        0.22992
H         -5.19111       -1.19366       -1.52660
C         -3.68863        0.85195       -0.57290
H         -4.14502        0.94781        0.41677
H         -2.81378        1.50447       -0.61433
H         -4.41594        1.19260       -1.32703
H         -2.17757       -0.92629        0.42571
