36
1sa1msa1ma1tma_99.log	Energy: -1025808.8994388
S          0.09599       -1.56025        0.54642
O          0.43117       -0.74513        1.72220
O         -0.16871       -0.67253       -0.65059
O          1.03531       -2.62653        0.21923
O         -1.29465       -2.29601        0.84098
H         -1.97391       -1.60731        1.02265
S         -3.15422        0.77781       -0.18565
O         -4.03038        1.92179       -0.06468
O         -3.05789       -0.16420        0.93421
O         -1.70968        1.31023       -0.53848
H         -1.04763        0.52085       -0.53878
C         -3.58802       -0.16824       -1.63233
H         -4.56998       -0.60695       -1.45200
H         -3.61574        0.50680       -2.48753
H         -2.83492       -0.94705       -1.76600
N          2.65529       -0.68711       -1.36131
H          2.53271       -1.56597       -0.85338
C          3.77054       -0.76846       -2.30818
H          3.65383       -1.57161       -3.04448
H          3.86767        0.17839       -2.84725
H          4.70232       -0.94188       -1.76286
H          1.76198       -0.57483       -1.83867
N          2.73198        1.34026        0.45490
C          3.19367        0.75775        1.73953
H          2.43409        0.05287        2.08247
H          4.13980        0.24090        1.56904
H          3.33445        1.55840        2.47019
C          3.74644        2.23426       -0.14226
H          4.66311        1.66922       -0.31965
H          3.36712        2.61950       -1.09013
H          3.95142        3.06585        0.53619
C          1.41999        2.02304        0.60052
H          1.04277        2.28069       -0.38989
H          0.72771        1.33943        1.09149
H          1.55445        2.92996        1.19561
H          2.63233        0.50847       -0.25096
