26
1sa1msa1dma_24.log	Energy: -940997.8345908
S         -1.87865       -1.14371        0.08210
O         -2.59965       -2.37176        0.34661
O         -0.92404       -0.66084        1.08847
O         -0.81918       -1.53217       -1.17332
O         -2.68264       -0.03564       -0.48522
H         -1.21055       -2.23634       -1.70662
H         -1.73188        1.33415       -0.29615
S          2.41009       -0.11867       -0.05287
O          1.56204        1.07552       -0.17561
O          3.81520        0.00939       -0.35879
O          1.83733       -1.25882       -0.99618
H          0.84540       -1.30955       -0.99906
C          2.19711       -0.79222        1.57699
H          2.58197       -0.05302        2.28090
H          1.13126       -0.97285        1.73165
H          2.77766       -1.71314        1.63110
N         -1.01150        2.06271       -0.06212
C         -1.28033        2.56501        1.30252
C         -0.96915        3.10321       -1.10889
H         -0.10524        1.55837       -0.05253
H         -2.25184        3.06085        1.31711
H         -1.28833        1.70738        1.97502
H         -0.49611        3.26731        1.58911
H         -1.93393        3.61052       -1.15227
H         -0.17872        3.81794       -0.87645
H         -0.76031        2.62577       -2.06592
