36
1sa1msa1ma1tma_97.log	Energy: -1025809.1653773
S          1.16106        2.01150        0.44446
O          1.43988        2.74086        1.66817
O          2.20783        1.98875       -0.57630
O          0.59760        0.63540        0.65446
O         -0.14560        2.75474       -0.23782
H         -0.02960        3.70538       -0.10592
S         -2.56515       -0.34904       -0.05708
O         -3.64059       -1.27937        0.21227
O         -1.62950       -0.63540       -1.14514
O         -1.74694       -0.17642        1.29032
H         -0.84612        0.23946        1.10279
C         -3.22950        1.27846       -0.32358
H         -3.80858        1.24439       -1.24720
H         -3.86771        1.52633        0.52446
H         -2.39116        1.97227       -0.40960
N          0.94968       -2.12952        1.66827
H          1.15806       -1.15082        1.84824
C          1.68697       -2.99426        2.58867
H          1.47966       -2.80893        3.65159
H          1.45338       -4.04156        2.37566
H          2.76141       -2.85973        2.42950
H         -0.05124       -2.22488        1.81555
N          1.33541       -1.14871       -1.42078
C          2.76768       -1.20089       -1.02730
H          3.11204       -0.18049       -0.85548
H          2.83691       -1.78743       -0.11118
H          3.33445       -1.67251       -1.83305
C          0.76554       -2.51092       -1.58628
H          0.88748       -3.03037       -0.63561
H         -0.29276       -2.41228       -1.82205
H          1.30365       -3.01521       -2.39224
C          1.12576       -0.30371       -2.62649
H          0.05386       -0.22881       -2.80430
H          1.54435        0.68313       -2.42662
H          1.62829       -0.77506       -3.47399
H          0.84330       -0.67528       -0.63871
