30
1sa1msa2ma_98.log	Energy: -976491.3639437
S         -0.64923       -0.77219       -0.30896
O          0.57806       -1.58642       -0.16980
O         -1.18978       -0.29865        0.97656
O         -0.22765        0.53330       -1.15188
O         -1.67988       -1.39889       -1.16401
H          0.62547        0.88052       -0.79240
H         -3.18572       -0.91691       -0.66923
S          3.23148        0.31566        0.25957
O          4.42167        0.84380        0.88422
O          2.16757        1.25369       -0.12538
O          2.63126       -0.78377        1.22600
H          1.77401       -1.13251        0.83555
C          3.66279       -0.62231       -1.19129
H          4.05588        0.08129       -1.92596
H          4.41956       -1.35376       -0.90886
H          2.75843       -1.11020       -1.55943
N         -3.11141        1.91319        0.59531
H         -3.55318        2.47251        1.31811
C         -2.73497        2.75308       -0.55256
H         -2.09047        3.59407       -0.27395
H         -2.18962        2.13787       -1.27136
H         -3.63573        3.14672       -1.03118
H         -2.27320        1.48998        0.99981
N         -4.03925       -0.55268       -0.16862
H         -3.80944        0.46921        0.09955
C         -4.26335       -1.34666        1.06096
H         -5.11012       -0.93767        1.61329
H         -4.45307       -2.38814        0.80113
H         -3.35274       -1.27950        1.65695
H         -4.83825       -0.58158       -0.79709
