26
1sa1msa1dma_31.log	Energy: -940994.1927769
S         -0.89432       -0.70089        0.05225
O          0.19419       -1.48043       -0.56453
O         -2.09025       -1.49639        0.39030
O         -0.36716       -0.19992        1.47818
O         -1.24423        0.51799       -0.72556
H          0.53802        0.18042        1.36831
H         -2.94259        0.78543       -0.56249
S          3.14983        0.20677        0.05660
O          4.13187       -0.64216        0.69839
O          2.08552        0.78658        0.88972
O          2.49564       -0.51227       -1.18593
H          1.58446       -0.89699       -0.96177
C          3.98088        1.53965       -0.77245
H          4.50470        2.11212       -0.00640
H          4.68860        1.10983       -1.48121
H          3.23539        2.15128       -1.27906
N         -3.84903        0.44005       -0.16179
C         -4.91184        0.38212       -1.18222
C         -4.17404        1.21398        1.05481
H         -3.52366       -0.51354        0.11599
H         -5.14252        1.39272       -1.52231
H         -4.55690       -0.21657       -2.02097
H         -5.80385       -0.07591       -0.75250
H         -4.38085        2.24971        0.78203
H         -5.04581        0.77433        1.54121
H         -3.31452        1.17110        1.72469
