40
1sa1msa2eda_104.log	Energy: -1095295.6862859
S         -2.64464       -0.95065       -0.58202
O         -2.23001       -2.35121       -0.34506
O         -3.16790       -0.24057        0.58252
O         -1.58796       -0.21537       -1.32090
O         -3.92466       -1.02013       -1.58036
H         -3.66752       -1.51650       -2.36882
S          2.66973        0.95260       -0.52173
O          1.59946        0.24227       -1.28808
O          3.20618        0.14579        0.59287
O          2.20999        2.30953       -0.11763
C          4.00756        1.20701       -1.67382
H          4.36013        0.23117       -2.00881
H          3.63000        1.78985       -2.51384
H          4.80126        1.74537       -1.15516
H         -1.11490        0.73684        1.31944
H          0.23279        1.82286        1.75991
H         -2.04706        2.34490        2.83152
H         -1.31161        3.71016        1.97585
H         -3.34969        1.94996        0.79186
H         -3.53074        3.54866        1.17824
H         -0.70651        1.22016       -0.76309
H         -1.24342        2.75251       -0.45889
C         -0.73119        1.75502        1.25326
C         -1.76143        2.72001        1.83948
N         -0.52482        2.06729       -0.19082
N         -2.86473        2.84160        0.89337
H          0.45154        2.38304       -0.35344
H          1.03661       -0.75337        1.32460
H         -0.35103       -1.83024        1.65333
H          1.84165       -2.40044        2.86785
H          1.14849       -3.74112        1.94170
H          3.27418       -1.98366        0.91668
H          3.42627       -3.58745        1.30751
H          0.77038       -1.18125       -0.78416
H          1.28044       -2.72762       -0.47301
C          0.64567       -1.76565        1.21395
C          1.61955       -2.75558        1.85257
N          0.54237       -2.04710       -0.24708
N          2.78376       -2.87633        0.98179
H         -0.41058       -2.37088       -0.48952
