28
1sa1msa1eda_136.log	Energy: -975722.9469034
S          1.75860       -1.62782       -0.10617
O          1.77522       -2.99535       -0.60406
O          2.23658       -0.60900       -1.08465
O          0.52583       -1.17172        0.55809
O          2.85948       -1.58087        1.11111
H          3.53810       -2.23606        0.90318
S         -2.71073        0.04405        0.07278
O         -2.40965        0.75736        1.29254
O         -2.10184        0.49910       -1.18317
O         -4.31354        0.11583       -0.17639
H         -4.46647        0.50390       -1.04991
C         -2.47126       -1.69369        0.28936
H         -1.39783       -1.82917        0.46456
H         -3.06353       -2.00361        1.15045
H         -2.79298       -2.19734       -0.62172
H         -0.07321        2.69151        0.68821
H          0.53500        1.08349        1.14966
H          2.20608        2.87842        1.72938
H          2.83751        1.74495        0.53074
H          1.94275        4.47887        0.00533
H          3.29455        3.71736       -0.51138
H         -0.36715        1.19005       -1.12518
H          0.89591        2.25790       -1.50619
C          0.70725        1.94751        0.50742
C          2.09912        2.53620        0.69269
N          0.59151        1.48943       -0.90174
N          2.31130        3.58709       -0.30721
H          1.23832        0.66144       -1.05482
