35
1sa1msa1ma1eda_12.log	Energy: -1035902.2523125
S          2.73584        0.30354       -0.23242
O          2.99152       -1.03227       -0.80193
O          2.46678        1.34612       -1.23878
O          1.74925        0.28417        0.86733
O          4.10478        0.74708        0.52389
H          4.80059        0.83074       -0.14223
S         -2.16607       -1.00048       -0.45218
O         -2.06901        0.10175       -1.44602
O         -1.61952       -0.59880        0.87183
O         -1.57257       -2.27918       -0.92488
C         -3.90736       -1.31507       -0.23491
H         -4.37790       -0.39720        0.11874
H         -4.32223       -1.61348       -1.19773
H         -4.02066       -2.11341        0.49867
N          0.82661       -2.34525        0.40655
H          0.73106       -1.43735        0.88553
H         -0.02825       -2.44683       -0.18720
C          0.97037       -3.45300        1.36983
H          1.08305       -4.39132        0.82744
H          1.84826       -3.27677        1.99106
H          0.07650       -3.49328        1.99171
H          1.66130       -2.21353       -0.18916
H         -0.18385        3.82863        0.30022
H         -1.09459        3.62226       -1.22175
H         -2.58833        3.92543        0.76868
H         -2.85695        2.38233       -0.05093
H         -2.41407        2.57506        2.57680
H         -1.87210        1.26749        1.72956
H          0.70715        1.96091       -0.98792
H          0.07302        1.44711        0.41994
C         -0.87211        3.18158       -0.24716
C         -2.14303        2.94710        0.56571
N         -0.18688        1.88792       -0.47444
N         -1.81358        2.28071        1.81866
H         -0.81852        1.21592       -0.96555
