33
1sa1msa1ma1dma_03.log	Energy: -1001172.4690956
S          2.18082       -0.33704       -0.53750
O          3.56560        0.02962       -0.74384
O          1.35531        0.62369       -1.55581
O          1.79508       -1.72721       -0.87243
O          1.63233        0.02093        0.81495
H          0.43836       -2.06221        0.03102
H          1.25669        1.61634        0.80828
S         -2.09305        0.61928       -0.24327
O         -1.70324        2.03045        0.01843
O         -2.14806       -0.21224        0.98628
O         -1.26595       -0.02528       -1.30053
H          0.40208        0.35514       -1.55684
C         -3.75370        0.69927       -0.88324
H         -3.73704        1.29579       -1.79537
H         -4.08667       -0.31724       -1.09332
H         -4.38600        1.16409       -0.12679
N          0.89903        2.57669        0.54573
H          1.35750        2.79841       -0.33825
C          1.13085        3.59111        1.59074
H          0.72416        4.55027        1.26983
H          0.62546        3.27073        2.50126
H          2.20031        3.68374        1.77936
H         -0.12105        2.43701        0.34013
N         -0.34917       -2.30820        0.68183
C          0.23817       -2.75872        1.95909
C         -1.23165       -3.28670        0.01906
H         -0.89867       -1.43860        0.84138
H          0.80120       -3.67781        1.78956
H          0.90962       -1.97464        2.30904
H         -0.55798       -2.93430        2.68470
H         -0.65958       -4.18369       -0.22339
H         -2.06014       -3.53748        0.68364
H         -1.61200       -2.83060       -0.89512
