29
1sa1msa1tma_21.log	Energy: -965655.7902909
S          1.74234       -1.53003       -0.12936
O          0.43479       -0.90621       -0.44449
O          2.11828       -2.69717       -0.90519
O          2.77560       -0.46608       -0.04319
O          1.52221       -2.04970        1.40397
H          2.07424        0.98982       -0.01420
H          2.04788       -2.85335        1.51274
S         -2.62671        0.07044        0.03173
O         -2.23763        1.00638       -1.01918
O         -2.29800        0.44006        1.40339
O         -2.08299       -1.37890       -0.29912
H         -1.07643       -1.35051       -0.35721
C         -4.36590       -0.26699       -0.08896
H         -4.58136       -0.61383       -1.09895
H         -4.62356       -1.02143        0.65358
H         -4.88102        0.67147        0.11784
N          1.61427        1.94441        0.00509
C          0.70392        1.96674        1.17945
H         -0.05315        1.19268        1.06376
H          1.29047        1.77399        2.07844
H          0.22437        2.94592        1.24102
C          2.71137        2.92969        0.14125
H          3.26225        2.72102        1.05890
H          3.38191        2.83533       -0.71349
H          2.29032        3.93680        0.17837
C          0.87351        2.11453       -1.27246
H          1.57566        1.98538       -2.09688
H          0.08699        1.36334       -1.32578
H          0.43588        3.11499       -1.29671
