27
1sa1msa1a1ma_16.log	Energy: -951846.0166470
S          2.11147       -0.58759       -0.28195
O          2.71141       -1.90620       -0.37560
O          1.10420       -0.37539       -1.52702
O          1.23578       -0.42529        0.93391
O          3.00600        0.57940       -0.41463
H          0.31140       -1.56829        1.36230
H          1.82842        1.83620       -0.33589
S         -2.14941        0.04695       -0.16804
O         -1.51901        1.37510       -0.36519
O         -2.41252       -0.28508        1.25731
O         -1.40925       -1.05563       -0.85176
H          0.20069       -0.72458       -1.32258
C         -3.74027        0.14965       -0.96336
H         -4.30672        0.94668       -0.48162
H         -3.57719        0.37116       -2.01805
H         -4.24356       -0.80966       -0.84310
N         -0.51172       -2.22566        1.59345
H         -0.33246       -2.79727        2.41287
H         -0.68426       -2.80230        0.77145
H         -1.33705       -1.59439        1.70306
N          0.98857        2.42317       -0.10340
H          0.98000        3.24757       -0.69940
C          1.00053        2.77053        1.33731
H          0.08357        3.30411        1.58552
H          1.05081        1.83131        1.88653
H          1.87593        3.38094        1.55821
H          0.12518        1.86977       -0.30993
