33
1sa1msa1ma1dma_103.log	Energy: -1001154.5359480
S          0.30271        0.33716       -1.03550
O         -0.87418        0.35402       -1.92119
O          1.57400        0.69690       -1.66549
O          0.08537        1.49633        0.06025
O          0.39356       -0.93768       -0.26040
H         -0.80148        1.36633        0.47592
H          2.00403       -1.15882        0.14909
S         -3.32818       -0.09294        0.48125
O         -4.69881       -0.02770        0.93285
O         -2.35542        0.85210        1.04693
O         -3.33646        0.05361       -1.09270
H         -2.40497        0.19008       -1.44482
C         -2.68642       -1.73326        0.73330
H         -2.68109       -1.90973        1.80976
H         -3.35218       -2.43439        0.23026
H         -1.67226       -1.77046        0.32778
N          3.53278        1.54366        0.42543
H          4.43633        1.95506        0.21422
C          2.96686        2.13481        1.64662
H          2.85449        3.22286        1.58675
H          1.97623        1.70713        1.81366
H          3.60638        1.89428        2.50046
H          2.91957        1.73091       -0.37023
N          3.04576       -1.17439        0.28657
C          3.66357       -1.70349       -0.94632
C          3.38960       -1.91265        1.51353
H          3.32507       -0.14258        0.38671
H          3.35519       -2.73982       -1.09505
H          3.31670       -1.09112       -1.77935
H          4.75074       -1.64919       -0.85905
H          3.07547       -2.95370        1.41890
H          4.46840       -1.86932        1.67614
H          2.87498       -1.45311        2.35818
