40
1sa1msa2eda_14.log	Energy: -1095298.5546379
S         -2.49843       -1.26974        0.30102
O         -1.83776       -2.17032        1.26752
O         -3.33770       -0.23849        0.91316
O         -1.57289       -0.77284       -0.74127
O         -3.49586       -2.21595       -0.57637
H         -4.16363       -2.57664        0.02246
S          2.59471        1.25929        0.18650
O          2.06554        2.07299       -0.94367
O          3.66418        0.32035       -0.18455
O          1.46389        0.60445        0.92207
C          3.30545        2.41906        1.34265
H          4.12284        2.93541        0.83848
H          2.53367        3.12575        1.64797
H          3.67698        1.86012        2.20168
H          0.80722       -3.76190       -0.51553
H          0.22183       -2.27156       -1.29202
H          2.56419       -3.09664       -2.05683
H          2.48400       -1.41151       -1.54252
H          4.05614       -3.40393       -0.37603
H          3.90263       -1.81535        0.04510
H         -0.07567       -2.20421        1.07482
H          1.61109       -2.45636        1.27679
C          0.99804       -2.69432       -0.65292
C          2.40704       -2.44497       -1.19126
N          0.87574       -2.06105        0.68403
N          3.39491       -2.67754       -0.13645
H          1.05672       -1.02975        0.65708
H         -1.24097        3.73777       -1.27789
H         -1.62844        2.41131       -2.39904
H         -3.66252        3.32382       -1.12436
H         -3.40037        1.58820       -0.92832
H         -3.32306        3.52784        1.12335
H         -3.19845        1.87874        1.22495
H          0.33737        1.97861       -0.86713
H         -0.77841        2.05490        0.38349
C         -1.61331        2.71266       -1.34973
C         -2.99056        2.57487       -0.69232
N         -0.66743        1.84512       -0.61633
N         -2.85438        2.71143        0.75566
H         -0.92058        0.84161       -0.71880
