35
1sa1msa1ma1eda_119.log	Energy: -1035888.0403839
S         -1.39983       -0.41612        0.86490
O         -1.79629       -1.57869        1.64847
O         -0.44974       -0.75811       -0.25787
O         -2.68998        0.14376        0.11078
O         -0.88997        0.74865        1.61769
H         -3.24809       -0.66090       -0.19154
H          0.25977        1.57056        0.69501
S          2.88779       -0.74787       -0.03665
O          3.03602       -0.26764        1.32761
O          2.67088        0.29367       -1.05869
O          1.78224       -1.84564       -0.15406
H          0.82195       -1.43043       -0.13181
C          4.30994       -1.70356       -0.49817
H          4.42341       -2.50887        0.22725
H          4.15731       -2.09486       -1.50325
H          5.16744       -1.03096       -0.46543
N         -3.86782       -2.14349       -0.50395
H         -3.63265       -2.57850        0.38615
C         -3.11257       -2.77423       -1.59446
H         -3.31025       -3.84748       -1.69851
H         -3.36074       -2.27838       -2.53603
H         -2.04645       -2.62575       -1.40866
H         -4.86816       -2.23825       -0.64315
H          0.29542        2.83412       -1.98228
H         -0.67880        1.44111       -1.44566
H         -2.02435        3.56562       -1.36635
H         -1.82204        2.83760        0.22878
H         -0.47337        5.23978       -0.75136
H         -1.15589        4.95515        0.70833
H          1.53943        1.54292       -0.41631
H          1.06156        3.00161        0.32151
C         -0.24149        2.39195       -1.13834
C         -1.29086        3.34580       -0.58086
N          0.74577        2.10878       -0.06669
N         -0.62200        4.53212       -0.04067
