23
1sa1msa1ma_09.log	Energy: -916336.8279774
S          2.05220       -0.73214       -0.08721
O          3.11836       -1.58666       -0.56809
O          2.47478        0.46460        0.67511
O          1.00768       -0.35004       -1.07655
O          1.19209       -1.64845        0.97516
H          1.77578       -2.35603        1.27999
S         -2.29676       -0.21839       -0.05790
O         -3.68380       -0.13772       -0.45191
O         -1.60835        1.02588        0.32857
O         -1.50046       -0.90421       -1.23306
H         -0.50326       -0.76171       -1.15851
C         -2.11378       -1.36046        1.29040
H         -2.62310       -0.92694        2.15171
H         -2.58220       -2.29949        0.99586
H         -1.04756       -1.49147        1.48288
N          0.73852        2.32473       -0.23571
H          1.47865        1.71722        0.20335
H          0.92497        2.31676       -1.23747
C          0.68892        3.68846        0.33097
H         -0.11070        4.25386       -0.14693
H          0.48970        3.60808        1.39877
H          1.64661        4.18393        0.17374
H         -0.15884        1.81600       -0.09366
