32
1sa1msa1a1eda_01.log	Energy: -1011245.2167358
S         -1.42062        1.68402        0.28337
O         -0.96239        0.71334        1.48422
O         -2.86269        1.75150        0.40701
O         -0.67874        2.95700        0.44755
O         -0.93447        0.98892       -0.96150
H          0.67526        2.91391       -0.54331
H         -0.91493       -0.66410       -0.92232
S          2.44291       -0.64227        0.08633
O          2.91929        0.60282       -0.57769
O          1.95889       -1.66398       -0.87805
O          1.46516       -0.37864        1.17239
H         -0.00886        0.47124        1.38585
C          3.88303       -1.33865        0.86953
H          4.26044       -0.61269        1.58965
H          3.58402       -2.25977        1.36965
H          4.62399       -1.54073        0.09615
N          1.29236        2.59879       -1.33742
H          1.78741        3.37106       -1.77215
H          0.63952        2.15442       -1.98600
H          1.95793        1.84960       -1.00473
H         -1.16309       -3.33263        0.38387
H         -0.84730       -1.78525        1.20680
H         -3.28985       -2.39027        1.30230
H         -3.00585       -0.88041        0.44169
H         -3.78761       -3.42495       -0.74376
H         -4.25491       -1.90474       -1.12690
H          0.23160       -1.87540       -0.96686
H         -1.31975       -2.10592       -1.66868
C         -1.36160       -2.25697        0.36999
C         -2.85715       -1.96317        0.38946
N         -0.79338       -1.70982       -0.88623
N         -3.46336       -2.46985       -0.84516
