36
1sa1msa2dma_95.log	Energy: -1025813.4654738
S          0.38285        1.78121        0.16537
O         -1.00589        2.23429        0.41878
O          1.03541        1.20970        1.34939
O          0.53456        0.97138       -1.05112
O          1.19441        3.14418       -0.20539
H          1.03045        3.79056        0.49466
S         -2.91731       -0.55764       -0.16621
O         -4.16743       -1.28333       -0.11712
O         -1.69125       -1.27065        0.21554
O         -3.07894        0.72286        0.74004
H         -2.25128        1.29768        0.70202
C         -2.66105        0.11336       -1.79435
H         -2.61943       -0.73171       -2.48289
H         -3.50694        0.75899       -2.02988
H         -1.71658        0.66217       -1.79797
N          0.99115       -1.72857        0.57672
C          1.12992       -1.83366        2.04353
C          0.81686       -3.02591       -0.10387
H          0.16329       -1.15361        0.36638
H          2.01630       -2.42751        2.27596
H          1.22901       -0.82496        2.44234
H          0.23943       -2.31194        2.45459
H          1.68990       -3.65262        0.08857
H         -0.08858       -3.50889        0.26484
H          0.71775       -2.84692       -1.17476
H          1.84530       -1.22967        0.15701
N          3.13645       -0.46464       -0.62132
C          3.82231       -1.20829       -1.67274
C          4.05050        0.15388        0.33773
H          2.54424        0.25449       -1.03756
H          4.34850       -2.06331       -1.23499
H          3.09126       -1.58570       -2.39285
H          4.55874       -0.59710       -2.21490
H          4.59212       -0.62806        0.88131
H          4.78985        0.80743       -0.14767
H          3.46670        0.74242        1.04848
