40
1sa1msa2eda_230.log	Energy: -1095279.7814748
S         -0.33601       -2.01640       -0.45670
O          1.01440       -2.07274       -1.08520
O         -0.97538       -3.29758       -0.22505
O         -0.31483       -1.11638        0.73356
O         -1.20107       -1.20200       -1.54416
H         -0.28086        0.49177        0.35446
H         -2.05769       -0.89888       -1.10270
S          3.12763        0.35412        0.31835
O          2.34794        0.95242        1.41111
O          2.96416        0.98294       -0.99101
O          2.91838       -1.18293        0.23803
H          2.08877       -1.51470       -0.32765
C          4.83966        0.39525        0.79051
H          5.11173        1.44382        0.91323
H          4.94973       -0.14544        1.73010
H          5.42401       -0.06979       -0.00271
H         -4.98914        0.09240        0.95811
H         -4.24035       -1.50150        0.79429
H         -3.59299       -0.50586        2.87709
H         -2.16679       -0.69000        1.83030
H         -3.62392        1.85727        2.03883
H         -2.34639        1.48042        2.96542
H         -4.11785       -0.21731       -1.23441
H         -3.16939        0.91511       -0.53155
C         -4.03036       -0.42791        0.79663
C         -3.10184       -0.13988        1.96562
N         -3.43404       -0.07379       -0.49647
N         -2.77335        1.29949        2.06066
H         -0.00125        3.41827       -0.32088
H          1.08644        2.13943       -0.89953
H         -0.39765        2.64847       -2.68820
H         -0.83382        1.04966       -2.07034
H         -2.27764        3.52694       -1.39526
H         -2.80233        2.34851       -2.38257
H          0.43341        1.62699        1.24715
H         -1.24236        1.71004        0.94144
C          0.05188        2.37118       -0.63825
C         -0.84348        2.11861       -1.83525
N         -0.29936        1.53105        0.53455
N         -2.22805        2.52574       -1.56373
