32
1sa1msa1a1eda_211.log	Energy: -1011225.9729155
S          0.96681        1.90497       -0.22152
O         -0.48621        1.73450        0.05099
O          1.76109        2.14240        0.98254
O          1.48457        0.86464       -1.12753
O          1.06799        3.24742       -1.12373
H          0.99208        4.00831       -0.53193
S         -2.96088       -0.54439        0.27008
O         -3.94128       -1.29056        1.02527
O         -2.28663       -1.21168       -0.85274
O         -1.86560       -0.03316        1.29473
H         -1.24888        0.64479        0.86775
C         -3.66928        0.96097       -0.35872
H         -4.40698        0.67787       -1.10998
H         -4.14230        1.48224        0.47338
H         -2.86810        1.55802       -0.79726
N          3.87607       -0.03843        1.63344
H          4.08782        0.04677        2.62279
H          3.18198        0.67927        1.41808
H          4.72118        0.21211        1.12981
H          0.87254       -3.57561       -1.23986
H          1.33726       -2.31479       -2.41085
H          3.33718       -3.29425       -1.12347
H          3.15363       -1.54495       -0.95168
H          2.79999       -3.49711        1.12293
H          3.08753       -1.84975        1.21162
H         -0.55697       -1.68176       -0.80771
H          0.65453       -1.78645        0.37388
C          1.31431       -2.58251       -1.35310
C          2.70073       -2.50979       -0.69889
N          0.45797       -1.61757       -0.62655
N          2.55022       -2.59149        0.74821
H          0.76683       -0.64210       -0.84208
