30
1sa1msa1a1dma_37.log	Energy: -976498.8851216
S         -1.50563       -1.39281       -0.04688
O         -0.55493       -1.47592        1.09858
O         -2.84768       -1.00542        0.37737
O         -0.95460       -0.62919       -1.18086
O         -1.59167       -2.89488       -0.65533
H         -2.02544       -3.46161       -0.00263
S          2.46861        0.00962       -0.02086
O          3.87490        0.23728        0.23422
O          1.52919        1.12220        0.15283
O          2.01573       -1.19356        0.89995
H          1.01271       -1.29585        0.93588
C          2.25780       -0.63784       -1.66426
H          2.59605        0.13167       -2.35963
H          2.87589       -1.53114       -1.75294
H          1.19834       -0.86047       -1.80833
N         -0.56679        1.36496        2.25135
H          0.44076        1.50267        2.21854
H         -0.71670        0.35518        2.22378
H         -0.91883        1.71837        3.13419
N         -1.29220        2.04113       -0.33640
C         -0.53237        3.20506       -0.83307
C         -2.75966        2.16291       -0.47491
H         -0.98557        1.17135       -0.80871
H         -0.83798        4.09263       -0.27572
H          0.52847        3.01071       -0.68008
H         -0.74148        3.35191       -1.89440
H         -3.10049        3.02122        0.10710
H         -3.01365        2.30464       -1.52676
H         -3.21666        1.24408       -0.10460
H         -1.05219        1.86819        0.69260
