40
1sa1msa2eda_193.log	Energy: -1095283.7174338
S          0.35470       -2.03511        0.36898
O          1.49062       -2.93271        0.42547
O         -0.97884       -2.67477        0.27790
O          0.36319       -0.95461        1.39645
O          0.55453       -1.24077       -1.04553
H          1.80071        0.00636        1.12942
H         -0.19146       -0.60722       -1.13106
S         -2.89525        0.03933       -0.38324
O         -4.05700        0.71676       -0.90999
O         -1.56724        0.48108       -0.85572
O         -3.04923       -1.49806       -0.65618
H         -2.23172       -2.00957       -0.32283
C         -2.87093        0.15113        1.39225
H         -2.80143        1.21092        1.64323
H         -3.80064       -0.27389        1.77012
H         -1.99790       -0.39556        1.75806
H         -1.33348        3.00181        0.14048
H         -0.50224        4.22563        1.10679
H          0.29895        4.20929       -1.20127
H          1.59656        3.83124       -0.05573
H          0.10894        1.74351       -1.49196
H          1.58536        2.29783       -1.95240
H         -0.42288        2.40897        2.47357
H         -0.17703        1.32822        1.28002
C         -0.37080        3.26288        0.60359
C          0.66836        3.44955       -0.49825
N          0.05969        2.26930        1.59295
N          0.96855        2.17240       -1.15553
H          4.36397        1.33194        0.33688
H          4.22385        0.08578        1.60539
H          5.02580       -0.85549       -0.54359
H          3.48869       -1.57716       -0.05571
H          3.93248       -0.51955       -2.46929
H          2.44749       -0.58542       -1.79188
H          2.23979        1.53553        1.52686
H          1.95312        1.18860       -0.04742
C          3.82795        0.43125        0.64659
C          3.95791       -0.65304       -0.41836
N          2.40724        0.80160        0.83306
N          3.38145       -0.19694       -1.68386
