39
1sa1msa1dma1tma_79.log	Energy: -1050472.1510113
S         -0.12672       -1.86972        0.17566
O          0.04574       -0.62832       -0.67099
O         -1.33451       -2.60220       -0.18554
O          1.12803       -2.61306        0.26835
O         -0.33471       -1.29838        1.67730
H         -1.13625       -0.73209        1.66780
S         -3.02627        0.76975       -0.08535
O         -3.83446        1.96057       -0.23528
O         -2.29563        0.58205        1.17910
O         -1.98582        0.73877       -1.27146
H         -1.19720        0.11169       -1.05587
C         -4.01289       -0.68062       -0.36636
H         -4.75147       -0.72669        0.43480
H         -4.49909       -0.56936       -1.33540
H         -3.34906       -1.54872       -0.34648
N          3.09852       -0.55854       -0.28563
C          4.39293       -0.71708        0.37674
C          3.18989       -0.66519       -1.74455
H          2.46877       -1.30585        0.03050
H          5.07116        0.08712        0.07054
H          4.25720       -0.66639        1.46019
H          4.86875       -1.67587        0.13277
H          3.78186        0.16793       -2.14188
H          3.66237       -1.60414       -2.05978
H          2.18055       -0.62411       -2.15908
N          1.95592        1.79572        0.23197
C          1.34222        2.29860       -1.01802
H          2.09902        2.31091       -1.80408
H          0.53177        1.62983       -1.30001
H          0.95437        3.30836       -0.85846
C          0.96880        1.74121        1.33612
H          0.08770        1.19971        1.00027
H          1.41137        1.21215        2.18122
H          0.69558        2.75900        1.62832
C          3.14380        2.58875        0.60859
H          3.57502        2.17231        1.52041
H          3.88051        2.53384       -0.19517
H          2.86274        3.63143        0.77845
H          2.35339        0.75878        0.03472
