35
1sa1msa1ma1eda_176.log	Energy: -1035885.7403672
S          0.01494        2.21136       -0.15041
O         -0.71563        1.71745       -1.35079
O         -0.70761        1.94069        1.09359
O          1.43147        1.81335       -0.11571
O          0.10579        3.81717       -0.34753
H         -0.79365        4.16225       -0.43178
S         -2.31395       -1.14884       -0.06609
O         -2.96726       -0.96534        1.21548
O         -0.87100       -1.44897       -0.04476
O         -2.58547        0.04453       -1.04231
H         -1.80906        0.72008       -1.11502
C         -3.13288       -2.45527       -0.94973
H         -4.18049       -2.17855       -1.06750
H         -2.64849       -2.57891       -1.91764
H         -3.04092       -3.35851       -0.34598
N          1.12909       -0.40555        1.63938
H          0.28474       -0.74813        1.15013
H          1.89565       -1.10750        1.45235
C          0.85032       -0.15194        3.06662
H          1.75724        0.20999        3.55145
H          0.06589        0.60151        3.13307
H          0.52182       -1.07758        3.53930
H          1.39569        0.46413        1.14555
H          3.54680       -2.94889       -1.25472
H          1.89362       -3.11933       -0.63329
H          2.09860       -1.44837       -2.50146
H          1.39811       -0.78115       -1.04367
H          3.97485       -0.12933       -2.15678
H          2.93709        0.77370       -1.24821
H          3.59648       -2.86003        1.12925
H          3.90856       -1.35522        0.53394
C          2.74562       -2.43532       -0.70257
C          2.32849       -1.17302       -1.46357
N          3.18397       -2.06482        0.65288
N          3.35981       -0.14369       -1.35275
