42
1sa1msa2tma_20.log	Energy: -1075134.7409504
S          0.98706        0.30632       -0.43348
O          1.47499        1.32041        0.51967
O          0.55109       -0.93246        0.28804
O         -0.07117        0.80391       -1.34116
O          2.18066       -0.10313       -1.37072
H          3.02277       -0.32323       -0.77816
S         -2.83331       -1.54623        0.10517
O         -3.10704       -0.37015       -0.72361
O         -2.90261       -1.33996        1.54906
O         -1.49056       -2.22677       -0.31167
H         -0.64356       -1.65574       -0.08933
C         -3.95553       -2.84287       -0.36181
H         -4.96142       -2.49161       -0.13028
H         -3.84383       -3.02430       -1.43030
H         -3.71344       -3.73368        0.21701
N         -1.70489        2.40345        0.06289
C         -0.80654        3.57887       -0.06899
H          0.19372        3.27635        0.24526
H         -0.78229        3.88384       -1.11549
H         -1.18865        4.38999        0.55523
C         -3.06873        2.68069       -0.44564
H         -2.99639        2.97966       -1.49192
H         -3.65360        1.76560       -0.36850
H         -3.51013        3.48662        0.14565
C         -1.72200        1.89467        1.46139
H         -2.32825        0.98961        1.50591
H         -0.69503        1.66513        1.74927
H         -2.13854        2.66905        2.11022
H         -1.26164        1.65317       -0.53198
N          4.24197       -0.58460        0.11851
C          4.84871        0.72663        0.35418
H          5.18909        1.14585       -0.59619
H          4.09287        1.39295        0.77606
H          5.70629        0.65631        1.04144
C          3.74271       -1.16477        1.36912
H          3.02618       -0.47586        1.82062
H          3.22198       -2.10029        1.15428
H          4.56520       -1.35810        2.07540
C          5.16280       -1.49234       -0.56216
H          4.65849       -2.44173       -0.75797
H          5.46556       -1.05651       -1.51770
H          6.06361       -1.68659        0.04112
