33
1sa1msa1ma1dma_72.log	Energy: -1001152.8186993
S         -1.26602        0.59238        0.38973
O          0.08960        0.31184        0.96912
O         -2.34250        0.65450        1.37074
O         -1.17054        1.80794       -0.47076
O         -1.53540       -0.63862       -0.56460
H          0.34476        2.15287       -0.77523
H         -2.56531       -0.83915       -0.60685
S          2.95883       -0.87176       -0.04681
O          3.67522       -0.11459        0.96890
O          2.63468       -0.13634       -1.28428
O          1.67433       -1.54801        0.52634
H          0.93310       -0.83719        0.71839
C          3.88757       -2.31610       -0.49243
H          4.82212       -1.96783       -0.93270
H          4.07725       -2.88812        0.41547
H          3.30723       -2.89391       -1.21071
N          1.39276        2.33106       -0.87467
H          1.83800        1.42031       -1.10569
C          1.94249        2.85439        0.40074
H          3.02223        2.97165        0.31409
H          1.46556        3.80770        0.62727
H          1.70831        2.12840        1.17788
H          1.55019        2.97313       -1.64771
N         -4.07666       -1.13321       -0.66897
C         -4.76544        0.14359       -0.88831
C         -4.45524       -1.76901        0.59750
H         -4.27613       -1.76340       -1.44043
H         -4.47180        0.83318       -0.09325
H         -4.44758        0.56741       -1.84355
H         -5.85819        0.03138       -0.88511
H         -4.12552       -1.12295        1.41442
H         -5.53921       -1.93031        0.67508
H         -3.94195       -2.72890        0.68873
