30
1sa1msa1a1dma_67.log	Energy: -976494.9346483
S         -0.63064        1.03179        0.35394
O          0.55096        1.87504        0.07818
O         -1.90217        1.67197       -0.04022
O         -0.55485       -0.21487       -0.69319
O         -0.64419        0.43420        1.69356
H          0.34397       -0.61848       -0.63015
H         -1.67139       -1.28467        1.70898
S          3.19578       -0.31950       -0.32172
O          3.84345       -0.12160       -1.60291
O          1.96110       -1.12213       -0.29710
O          2.94143        1.04694        0.41375
H          1.98510        1.38632        0.29672
C          4.34916       -1.05621        0.81018
H          4.63517       -2.02076        0.38988
H          5.21469       -0.39799        0.88411
H          3.85982       -1.17611        1.77589
N         -2.31151       -2.01567        1.37921
H         -2.72628       -2.46326        2.19005
H         -1.73925       -2.70935        0.90705
H         -3.24140       -1.04679        0.26209
N         -3.67495       -0.32545       -0.38874
C         -5.04646       -0.01836        0.05407
C         -3.56395       -0.79542       -1.78415
H         -3.06162        0.52256       -0.27021
H         -5.66374       -0.91633       -0.01406
H         -5.01094        0.32734        1.08765
H         -5.46713        0.76691       -0.57612
H         -4.11446       -1.73123       -1.89961
H         -3.97166       -0.03895       -2.45676
H         -2.50635       -0.94458       -2.00143
