27
1sa1msa1a1ma_03.log	Energy: -951846.3323094
S          2.51372       -0.23741        0.09174
O          2.38087       -1.55467        0.75029
O          1.65978       -0.09690       -1.09799
O          2.41111        0.90081        1.02637
O          4.01799       -0.18876       -0.51645
H          4.64334       -0.27913        0.21559
S         -2.49198       -0.24996        0.12299
O         -2.33384        0.88958        1.06398
O         -2.28483       -1.58105        0.75811
O         -1.64325       -0.08804       -1.08991
C         -4.19295       -0.22044       -0.40839
H         -4.82281       -0.34864        0.47199
H         -4.38467        0.74203       -0.88280
H         -4.34551       -1.03627       -1.11502
N          0.02522       -2.40204       -0.41454
H          0.00737       -3.30044       -0.88747
H          0.89293       -2.29429        0.15361
H          0.03951       -1.63311       -1.09760
H         -0.84296       -2.25386        0.15844
N          0.00513        1.98145        0.10709
H          0.87063        1.76029        0.63587
H         -0.00653        1.31242       -0.67557
C         -0.02797        3.37839       -0.36555
H         -0.93958        3.53607       -0.94133
H         -0.01620        4.04904        0.49325
H          0.84477        3.56552       -0.99064
H         -0.83751        1.72714        0.66651
