29
1sa1msa1tma_37.log	Energy: -965648.3347945
S         -1.15991        1.70596        0.10921
O         -0.22593        2.80748        0.28939
O         -2.58817        1.97256        0.12322
O         -0.91517        1.10147       -1.39949
O         -0.78367        0.52656        0.98571
H          0.03174        0.88057       -1.47549
H         -1.44478       -0.71288        0.45719
S          2.58568       -0.26317       -0.13898
O          1.64919       -0.08848       -1.23624
O          3.99786       -0.45455       -0.41249
O          2.08251       -1.60366        0.65402
H          2.86978       -2.12281        0.87253
C          2.33662        0.99516        1.08156
H          2.46942        1.95662        0.58316
H          1.30911        0.90858        1.44279
H          3.07801        0.84786        1.86686
N         -1.92312       -1.60971        0.07473
C         -3.19040       -1.18038       -0.56809
H         -3.79234       -0.64377        0.16501
H         -2.94783       -0.49604       -1.38078
H         -3.72108       -2.06023       -0.94133
C         -0.98945       -2.21996       -0.90023
H         -0.81747       -1.50340       -1.70245
H         -0.04179       -2.42429       -0.40125
H         -1.42622       -3.14092       -1.29565
C         -2.15867       -2.48304        1.24339
H         -1.20041       -2.70266        1.71562
H         -2.79753       -1.95511        1.95207
H         -2.64073       -3.40996        0.92219
