35
Properties=species:S:1:pos:R:3 2msa1ma1dma_223.log=T Energy:=T -978616.4933410=T pbc="F F F"
S       -2.86999000      -0.80510000       0.24667000
O       -3.08541000       0.52859000       0.84119000
O       -1.97191000      -1.68897000       0.97554000
O       -2.43813000      -0.65597000      -1.24486000
H       -1.54773000      -0.08823000      -1.31665000
C       -4.45343000      -1.57631000       0.04053000
H       -4.87081000      -1.71861000       1.03766000
H       -5.08364000      -0.91897000      -0.55732000
H       -4.30032000      -2.53494000      -0.45451000
S        1.00256000       0.37241000      -0.94383000
O        1.97518000       0.83394000      -1.92427000
O       -0.42234000       0.75667000      -1.29584000
O        1.27111000       0.84100000       0.45902000
H        0.01428000       1.57508000       1.09074000
C        1.04330000      -1.40488000      -0.88115000
H        0.85448000      -1.78091000      -1.88742000
H        2.04420000      -1.67734000      -0.53088000
H        0.27788000      -1.74615000      -0.18142000
N       -0.85619000       2.12241000       1.37672000
H       -1.67700000       1.50152000       1.22956000
C       -0.97076000       3.33426000       0.53005000
H       -1.88409000       3.87393000       0.78042000
H       -0.09716000       3.96569000       0.69002000
H       -0.99645000       3.00068000      -0.50696000
H       -0.79726000       2.35053000       2.36644000
N        3.95030000      -0.82385000       0.64812000
C        4.89066000      -0.30368000      -0.33167000
C        4.59750000      -1.34361000       1.83796000
H        3.28277000      -0.09902000       0.89765000
H        5.49582000      -1.12661000      -0.72968000
H        4.33873000       0.14967000      -1.15869000
H        5.58394000       0.45011000       0.08366000
H        5.20170000      -2.21937000       1.57401000
H        5.26659000      -0.61550000       2.33230000
H        3.84257000      -1.66504000       2.56126000
