12
1eda.log	Energy: -119530.4632645
H          0.64743        0.60280        1.38718
H          1.24332        1.50686       -0.01260
H         -1.17947        1.54574       -0.02277
H         -0.60113        0.57129       -1.38875
H         -1.71236       -0.50426        1.10045
H         -2.23981       -0.74622       -0.42913
H          2.35585       -0.66824        0.21988
H          0.91070       -1.40058       -0.07135
C          0.72632        0.58754        0.28457
C         -0.68201        0.60280       -0.29761
N          1.45720       -0.55994       -0.23531
N         -1.41298       -0.58998        0.13464
