35
1msa2tma_11.log	Energy: -635758.8554924
N          3.27430       -0.86143        0.21206
C          2.68470       -0.15756        1.33150
H          2.07595       -0.83865        1.93031
H          3.47199        0.26453        1.96420
H          2.01749        0.66634        1.00637
C          4.08176        0.02216       -0.60144
H          4.86915        0.47653        0.00791
H          4.55763       -0.54096       -1.40955
H          3.49016        0.84161       -1.06198
C          2.26302       -1.54300       -0.57845
H          2.74168       -2.09560       -1.39223
H          1.72845       -2.25481        0.05556
H          1.51201       -0.85739       -1.01136
S         -1.71586       -1.10080        0.01303
O         -1.38224       -0.80192       -1.39750
O         -3.10913       -0.83393        0.39020
O         -0.73130       -0.40234        0.93346
H         -0.58574        1.00366        0.40920
C         -1.41779       -2.84023        0.27860
H         -0.38685       -3.06574        0.00752
H         -1.60141       -3.06014        1.33030
H         -2.11028       -3.39397       -0.35590
N         -0.60147        2.01290       -0.00623
C         -2.02922        2.30430       -0.29481
H         -2.38421        1.58844       -1.03628
H         -2.60500        2.17154        0.62128
H         -2.12031        3.32824       -0.66652
C         -0.05139        2.93229        1.01048
H         -0.64235        2.84281        1.92270
H          0.98201        2.65449        1.22131
H         -0.09123        3.95920        0.63761
C          0.20464        1.98936       -1.24907
H          1.24386        1.77974       -0.99177
H         -0.18173        1.18573       -1.87870
H          0.12976        2.95855       -1.74942
