25
1msa1a1eda_18.log	Energy: -571863.3718882
S         -1.52870       -0.11134       -0.13830
O         -1.25958       -1.45252       -0.69059
O         -1.26851        1.00862       -1.06171
O         -0.81037        0.07606        1.18103
H          0.50747       -0.72381        1.19446
C         -3.26400       -0.04589        0.27638
H         -3.48420       -0.85267        0.97541
H         -3.47328        0.92492        0.72581
H         -3.82858       -0.17102       -0.64794
H          2.70556       -2.25997       -0.17313
H          0.98486       -2.10158       -0.68345
H          2.66560       -0.53085       -1.89837
H          1.24269        0.22902       -1.19114
H          3.94172        0.67494       -0.42698
H          2.54541        1.46548        0.04558
H          1.45925       -2.00949        1.80516
H          2.18720       -0.52425        1.43972
C          1.83689       -1.59743       -0.22516
C          2.17688       -0.28789       -0.94999
N          1.46950       -1.21917        1.16691
N          2.99954        0.55336       -0.08075
N          0.89712        2.63921        0.32268
H          0.50807        2.40826        1.23279
H          0.19203        2.31828       -0.34375
H          0.95143        3.65037        0.25955
