34
1msa1eda1tma_39.log	Energy: -645834.0995473
S          2.11421       -0.46655        0.00306
O          1.46724       -1.75398        0.26651
O          2.26374        0.40742        1.20827
O          1.47050        0.31052       -1.11483
H          0.80206        1.65563       -0.46730
C          3.77225       -0.81864       -0.55669
H          4.28076       -1.37050        0.23427
H          3.70209       -1.42205       -1.46195
H          4.28108        0.12389       -0.75862
H         -1.66156        3.48447       -0.65090
H         -2.77859        2.44493        0.21567
H         -0.88604        2.89490        1.68795
H         -0.86698        1.17849        1.21459
H          0.86402        3.27887        0.07779
H          1.31927        1.93015        1.00845
H         -0.95543        1.59549       -1.93676
H         -1.82723        0.56949       -0.97744
C         -1.79125        2.46654       -0.25915
C         -0.76672        2.20329        0.84901
N         -1.78171        1.52136       -1.35426
N          0.62347        2.32568        0.34027
N         -2.25587       -1.14004        0.08096
C         -1.74896       -1.46791        1.40632
H         -0.65587       -1.48262        1.38868
H         -2.09246       -0.72023        2.13080
H         -2.10181       -2.45728        1.75289
C         -3.70845       -1.10163        0.06245
H         -4.06993       -0.37335        0.79595
H         -4.05821       -0.79120       -0.92690
H         -4.15933       -2.08331        0.30022
C         -1.73614       -2.06965       -0.91633
H         -2.06792       -1.76040       -1.91301
H         -0.64415       -2.06065       -0.88587
H         -2.08860       -3.10257       -0.73953
