26
1msa1a1tma_06.log	Energy: -561785.0368973
S          1.28742       -0.60381        0.01104
O          1.28857       -2.06941       -0.01013
O          0.92512        0.00244        1.31565
O          0.39478       -0.01951       -1.07740
H         -0.97795       -0.00366       -0.52519
C          2.92258       -0.03486       -0.41051
H          3.60656       -0.41337        0.34981
H          3.17722       -0.43970       -1.39011
H          2.91380        1.05663       -0.42148
N          1.16845        2.87297       -0.04789
H          1.03646        2.33973        0.80695
H          0.72489        2.34852       -0.79564
H          0.73102        3.78168        0.04334
N         -1.97786       -0.04401       -0.07552
C         -2.95884        0.10169       -1.16930
H         -2.80487        1.06448       -1.65818
H         -2.80080       -0.69800       -1.89392
H         -3.97379        0.04645       -0.76675
C         -2.07307       -1.36901        0.58568
H         -1.88460       -2.14500       -0.15667
H         -1.30113       -1.42566        1.35358
H         -3.06767       -1.48664        1.02412
C         -2.05565        1.06040        0.90767
H         -1.23642        0.93161        1.61668
H         -1.92756        2.00852        0.38318
H         -3.02585        1.03516        1.41130
