26
1msa1ma1dma_01.log	Energy: -561792.4463321
S         -1.51427       -0.13769       -0.04917
O         -1.45476        0.90049       -1.10157
O         -0.96632        0.30795        1.25300
O         -0.88645       -1.43100       -0.48625
C         -3.23988       -0.51502        0.20485
H         -3.73847        0.40019        0.52473
H         -3.65490       -0.87049       -0.73839
H         -3.31219       -1.28388        0.97407
N          1.70931       -0.89536       -0.04894
C          1.96674       -0.98296        1.40176
C          2.67603       -1.61285       -0.89367
H          0.72496       -1.23613       -0.24036
H          2.91751       -0.49736        1.63302
H          1.14081       -0.48225        1.90999
H          2.00453       -2.03200        1.70279
H          3.67862       -1.21202       -0.72816
H          2.66236       -2.67705       -0.65044
H          2.39718       -1.47821       -1.93949
H          1.67560        0.13900       -0.33714
N          1.36622        1.76633       -0.74612
H          1.91705        2.21779       -1.46939
C          1.32861        2.58962        0.47158
H          0.99548        3.61752        0.28561
H          0.62987        2.12373        1.17072
H          2.32244        2.62469        0.92876
H          0.40999        1.66051       -1.10271
