23
1msa2ma_44.log	Energy: -537104.4591263
S          0.03996       -0.92938       -0.05753
O         -0.17247       -0.12236       -1.24467
O          1.11032       -1.91652       -0.03025
O         -1.34369       -1.75323        0.22036
H         -1.12298       -2.69537        0.21862
C          0.10352        0.11972        1.36286
H          1.03594        0.69388        1.26344
H         -0.77605        0.77224        1.32333
H          0.11958       -0.51184        2.25118
N          3.03597        1.48232        0.58047
H          3.07912        2.49226        0.49539
C          3.22602        0.84311       -0.72535
H          4.18349        1.07932       -1.21052
H          3.15488       -0.24080       -0.60603
H          2.41542        1.14382       -1.39369
H          3.77337        1.20955        1.22164
N         -2.37833        1.78069       -0.03986
H         -2.57220        2.77158       -0.13251
C         -3.61432        1.00157       -0.09959
H         -4.18609        1.12497       -1.03095
H         -3.37184       -0.05868        0.00959
H         -4.26100        1.28157        0.73722
H         -1.75903        1.51687       -0.80166
