33
1msa2eda_84.log	Energy: -655911.8155126
S          2.33864       -0.38573       -0.10894
O          2.76057        0.98736       -0.43353
O          1.36701       -0.96285       -1.06840
O          1.82889       -0.49553        1.30630
C          3.79240       -1.41985       -0.15244
H          4.20767       -1.36783       -1.15926
H          4.50558       -1.03621        0.57727
H          3.49931       -2.44111        0.09104
H         -0.52638        3.17145        1.05293
H          1.09352        2.51459        0.66911
H         -0.06000        2.95634       -1.42342
H          0.09696        1.21796       -1.21232
H         -2.36190        2.77509       -0.96495
H         -2.13138        1.31205       -1.65383
H         -0.59646        1.32457        2.36050
H         -0.98293        0.48060        0.95320
C          0.01862        2.33005        0.61687
C         -0.41146        2.10607       -0.82564
N         -0.27706        1.10659        1.42097
N         -1.85780        1.89984       -0.87521
H          0.59524        0.49071        1.48376
H         -3.67214       -1.77692        1.28964
H         -4.54605       -2.14697       -0.20231
H         -2.34506       -2.93745       -0.56146
H         -2.45195       -1.42721       -1.47080
H         -1.08185       -1.84642        1.07108
H         -0.45165       -1.29245       -0.31320
H         -4.90230        0.16787        0.55947
H         -3.33011        0.50232        0.18158
C         -3.75913       -1.51201        0.22040
C         -2.43799       -1.84726       -0.45991
N         -4.11501       -0.11693       -0.01121
N         -1.29909       -1.26708        0.26320
