21
1msa1eda.log	Energy: -536368.4332350
H          0.56597        1.40010       -0.22493
H          3.51446        0.96562        0.25199
H          2.24238        1.32147        1.45588
H          2.94384       -1.15696        1.27204
H          1.21196       -0.85700        1.12874
H          2.81796       -2.06704       -0.79881
H          1.23829       -1.58217       -0.96745
H          1.92130        2.25639       -0.88101
H          1.65398        0.66165       -1.32513
C          2.47012        0.79524        0.52679
C          2.17739       -0.70826        0.63357
N          1.61107        1.34576       -0.55346
N          2.17860       -1.29017       -0.70670
O         -0.67090       -0.69354       -1.08682
O         -0.82757        1.32946        0.28856
O         -1.30364       -0.88093        1.30897
S         -1.34729       -0.07906        0.08221
C         -3.06288        0.13977       -0.35667
H         -3.11610        0.73860       -1.26579
H         -3.49377       -0.84863       -0.51892
H         -3.56219        0.64338        0.47132
