20
1msa1a1ma_02.log	Energy: -512469.4726203
S         -1.07489       -0.12170       -0.03404
O         -0.42538        0.08744        1.28955
O         -0.49176       -1.24364       -0.79876
O         -1.11004        1.15713       -0.81587
H          0.35383        1.95611       -0.39410
C         -2.77858       -0.54247        0.28502
H         -2.79376       -1.46468        0.86634
H         -3.23637        0.27525        0.84151
H         -3.27628       -0.68432       -0.67444
N          2.34954       -0.37529       -0.67266
H          1.47796       -0.77758       -1.03503
C          2.72080       -1.11090        0.54588
H          2.91775       -2.17260        0.36109
H          3.61286       -0.66212        0.99318
H          1.89136       -1.03513        1.25353
H          3.06133       -0.47864       -1.38895
N          1.25385        1.97363        0.15099
H          0.95584        1.70867        1.09518
H          1.73150        2.86824        0.12560
H          1.84267        1.13831       -0.23230
