9
1msa.log	Energy: -416812.5553828
H         -1.45093       -1.46257        0.27518
O         -0.63633        0.05548       -1.39555
O         -0.22062        1.35237        0.72929
O         -0.72876       -1.08602        0.79866
S         -0.08818        0.14502       -0.05277
C          1.61904       -0.35350       -0.05368
H          2.17497        0.43363       -0.56460
H          1.94918       -0.44443        0.98097
H          1.70900       -1.30055       -0.58431
