25
1msa1a1eda_59.log	Energy: -571850.9499184
S         -1.50428       -0.64174       -0.05605
O         -0.89573       -1.11697       -1.28842
O         -2.95424       -0.76845        0.10007
O         -1.11570        0.88348        0.17030
H         -1.95841        1.47007        0.10959
C         -0.67965       -1.41008        1.31455
H          0.39585       -1.24138        1.18403
H         -1.06701       -0.97989        2.23765
H         -0.90706       -2.47567        1.25711
H          2.64839        0.67349       -1.60104
H          1.36144        0.98251       -0.42932
H          3.38274        2.11910        0.29122
H          3.02020        0.80021        1.42130
H          5.07102        0.70216       -0.67166
H          5.28484        0.57047        0.94398
H          1.48510       -1.35762       -1.00985
H          3.00535       -1.43824       -0.36330
C          2.31399        0.46209       -0.56973
C          3.34485        1.02366        0.39952
N          2.11029       -0.96039       -0.31470
N          4.64067        0.37385        0.18712
N         -3.40304        2.18500       -0.01897
H         -3.68395        2.82553        0.71583
H         -3.98962        1.35352        0.02914
H         -3.56559        2.63587       -0.91352
