31
1msa1dma1eda_76.log	Energy: -621177.6343353
S          2.01228       -0.01483        0.14771
O          1.39118        0.17501       -1.21965
O          1.24194       -0.98053        0.95934
O          2.25178        1.28439        0.79816
C          3.59759       -0.76752       -0.17366
H          3.43103       -1.71898       -0.67886
H          4.18117       -0.09188       -0.79890
H          4.08796       -0.92391        0.78749
H         -0.54312        0.91788        0.91793
H         -0.37539        2.66634        1.04882
H         -2.68838        1.73366        1.68887
H         -2.77187        2.97072        0.42562
H         -2.71869        0.06673       -0.10048
H         -3.99779        1.11155       -0.39291
H         -0.33346        2.83890       -1.25446
H          0.30611        1.24785       -1.11543
C         -0.90190        1.87017        0.52414
C         -2.42301        1.95442        0.64605
N         -0.53747        1.89969       -0.92322
N         -2.99037        1.03443       -0.33398
H         -1.37278        1.53093       -1.41237
N         -1.59407       -1.59627        0.12882
C         -1.33390       -1.94511       -1.26346
C         -2.34863       -2.62446        0.83020
H         -0.69040       -1.46148        0.58512
H         -2.26445       -1.89489       -1.84241
H         -0.61218       -1.23782       -1.68047
H         -0.91534       -2.95834       -1.37980
H         -3.34851       -2.71652        0.38910
H         -1.87084       -3.61706        0.78472
H         -2.46631       -2.34728        1.88137
