17
1msa2a_08.log	Energy: -487792.8321330
S         -0.12101       -0.57418       -0.08400
O         -1.29807       -1.43217       -0.05962
O          0.10119        0.31039       -1.21324
O          1.17064       -1.56700        0.01254
H          0.84084       -2.47504       -0.04483
C          0.04004        0.33787        1.42363
H          1.00916        0.84576        1.38652
H         -0.79756        1.04233        1.41426
H         -0.03253       -0.36401        2.25414
N          2.79607        1.45945       -0.01510
H          3.46153        0.70213       -0.12704
H          3.30526        2.33364       -0.08080
H          2.14536        1.40962       -0.79474
N         -2.69206        1.50266       -0.01589
H         -3.44668        2.17308        0.07756
H         -3.09976        0.57599       -0.09500
H         -2.20791        1.69170       -0.88831
