25
1msa1a1eda_31.log	Energy: -571860.9075449
S         -1.87321        0.05625        0.02886
O         -3.20810        0.60381       -0.19531
O         -1.15874        0.62616        1.21997
O         -0.97138        0.11833       -1.17369
H          0.20482        1.50205       -0.91721
C         -2.06288       -1.68610        0.38113
H         -2.67704       -1.78223        1.27686
H         -2.55731       -2.14957       -0.47309
H         -1.07758       -2.12585        0.54251
H          4.00812       -1.05905        0.51389
H          3.15993       -0.15411        1.78100
H          1.85193       -2.11813        0.89628
H          0.99823       -0.58689        0.78039
H          1.94928       -2.18458       -1.41657
H          0.73209       -1.06041       -1.35009
H          4.08592        1.31378        0.07829
H          3.17888        0.53874       -1.05735
C          3.14488       -0.40857        0.71631
C          1.84745       -1.14955        0.37833
N          3.20867        0.82827       -0.07896
N          1.68762       -1.27120       -1.06887
N          0.66268        2.03815       -0.15077
H          0.07174        1.72902        0.65849
H          0.59357        3.03946       -0.30305
H          1.66513        1.71003       -0.04443
