33
1msa2eda_105.log	Energy: -655911.3241727
S         -1.97872       -0.65561        0.01137
O         -1.29652       -0.05982        1.18083
O         -1.41664       -1.92912       -0.46007
O         -2.11706        0.36481       -1.09374
H         -1.16055        1.52680       -1.00300
C         -3.66037       -1.00493        0.50487
H         -4.19331       -1.39881       -0.36062
H         -3.62615       -1.74687        1.30310
H         -4.12088       -0.08176        0.85720
H         -0.17524        3.93122        0.48456
H         -1.12048        2.53060        1.08802
H          1.34471        2.53568        1.81545
H          0.77467        1.07747        0.99880
H          2.59367        3.06488       -0.09708
H          2.55715        1.41377       -0.31160
H         -1.09597        3.15566       -1.46592
H          0.35961        2.31828       -1.37427
C         -0.29175        2.84396        0.45210
C          1.00840        2.13463        0.85196
N         -0.58132        2.44621       -0.95174
N          1.98398        2.26558       -0.22486
H          3.99577       -2.16451        0.46869
H          3.49258       -0.84592        1.53851
H          1.75863       -2.60891        1.36698
H          1.15482       -1.06660        0.78140
H          1.84881       -3.35278       -0.86658
H          0.52506       -2.37647       -0.89328
H          4.42703       -0.19723       -0.72229
H          3.00489       -0.75255       -1.32905
C          3.29092       -1.32373        0.57265
C          1.86387       -1.86991        0.55893
N          3.44626       -0.34093       -0.50514
N          1.53534       -2.39362       -0.76400
