34
1msa1eda1tma_06.log	Energy: -645842.1445262
S          1.97139       -0.67677        0.00473
O          1.38924       -1.76746        0.80589
O          2.52267        0.44748        0.79134
O          1.01259       -0.17020       -1.04735
C          3.32420       -1.38751       -0.91867
H          4.05503       -1.76112       -0.20100
H          2.93197       -2.20220       -1.52747
H          3.76171       -0.61064       -1.54575
H         -4.05261       -2.13967       -0.20432
H         -3.59130       -1.31288       -1.69888
H         -1.75898       -2.72000       -0.83437
H         -1.28300       -1.02727       -0.89465
H         -2.04316       -2.46461        1.53191
H         -0.61238       -1.76230        1.15985
H         -4.66286        0.18662       -0.09736
H         -3.41996       -0.07212        0.94273
C         -3.40124       -1.35211       -0.62067
C         -1.94419       -1.73345       -0.38264
N         -3.67447       -0.03474       -0.04159
N         -1.62382       -1.67809        1.04417
N         -0.18830        1.95160       -0.04568
C          0.84605        3.01134       -0.09718
H          1.74489        2.62451        0.38516
H          1.06002        3.23888       -1.14244
H          0.47312        3.90392        0.41149
C         -1.39616        2.30060       -0.82887
H         -1.11064        2.42294       -1.87504
H         -2.14032        1.50299       -0.72388
H         -1.80754        3.23915       -0.44641
C         -0.52103        1.57772        1.35365
H         -1.15836        0.68939        1.33908
H          0.41071        1.34192        1.86939
H         -1.03066        2.41738        1.83361
H          0.25642        1.08379       -0.48833
