23
1msa1a1dma_04.log	Energy: -537127.0590204
S          1.38065       -0.16606       -0.00054
O          0.76088       -1.50018       -0.01724
O          1.05970        0.62065        1.23221
O          1.08663        0.63887       -1.22871
H         -0.22850        1.79279       -0.80584
C          3.14917       -0.40591        0.01619
H          3.40264       -0.97474        0.91113
H          3.42163       -0.96053       -0.88207
H          3.63260        0.57083        0.02923
N         -2.71566        0.02535       -0.00397
C         -2.40413       -0.71973        1.22471
C         -2.40122       -0.75268       -1.21144
H         -3.70506        0.25645       -0.00827
H         -1.33259       -0.93551        1.24675
H         -2.66183       -0.11208        2.09657
H         -2.94943       -1.67182        1.28066
H         -1.33164       -0.97921       -1.21861
H         -2.95481       -1.70101       -1.24749
H         -2.64669       -0.16514       -2.10037
N         -0.85459        2.05136       -0.01288
H         -1.13067        3.02729       -0.02101
H         -0.24564        1.80239        0.79459
H         -1.68924        1.36548       -0.01545
