23
1msa2ma_33.log	Energy: -537106.8151935
S          1.50878       -0.09783        0.03273
O          1.12299        0.68228       -1.13918
O          1.20712        0.40391        1.35668
O          3.12048       -0.31337       -0.08273
H          3.46104        0.34659       -0.70360
C          0.95341       -1.76916       -0.11009
H         -0.14233       -1.72671        0.02150
H          1.23670       -2.14391       -1.09329
H          1.42415       -2.34491        0.68737
N         -2.16038       -1.12487        0.38879
H         -2.29333       -1.01046        1.38852
C         -3.24342       -1.92157       -0.18126
H         -4.24556       -1.48598       -0.05219
H         -3.07084       -2.04676       -1.25446
H         -3.24882       -2.91999        0.26728
H         -2.15637       -0.18383       -0.02032
N         -1.78657        1.72779       -0.71026
H         -0.89450        1.56177       -1.16915
C         -1.57990        2.49626        0.51846
H         -1.13306        3.48827        0.36232
H         -2.53799        2.62838        1.03031
H         -0.91802        1.93192        1.18055
H         -2.37823        2.23483       -1.35905
