29
1msa2dma_37.log	Energy: -586435.1906837
S          1.48354       -0.75021        0.00164
O          0.96400       -1.36755       -1.22375
O          0.47103       -0.51033        1.05361
O          2.24785        0.53218       -0.28274
H          1.30689        1.63388       -0.35981
C          2.71459       -1.84781        0.68097
H          2.22156       -2.79261        0.91126
H          3.49121       -1.99405       -0.06988
H          3.12529       -1.39538        1.58339
N          0.49379        2.38761       -0.39989
C          0.06364        2.66948        0.98967
C         -0.58143        1.82379       -1.25157
H          0.87016        3.22985       -0.83100
H         -0.17074        1.71076        1.45544
H          0.89117        3.13730        1.52370
H         -0.80703        3.32861        0.98620
H         -0.94263        0.91176       -0.77632
H         -1.39375        2.54618       -1.35360
H         -0.16174        1.57021       -2.22491
N         -3.44058       -1.19301        0.29111
C         -3.00525       -0.02902        1.04830
C         -2.73835       -1.32493       -0.97978
H         -3.27462       -2.02581        0.84562
H         -3.29161        0.87960        0.50183
H         -3.51989       -0.00332        2.01334
H         -1.91756       -0.00574        1.22553
H         -3.01169       -0.48173       -1.62737
H         -1.64115       -1.35371       -0.88612
H         -3.06523       -2.23816       -1.48454
