22
1msa1tma.log	Energy: -526295.5813328
H         -0.88460       -0.12730        0.51509
H         -2.76486       -0.94323        1.75703
H         -2.62806        0.82762        1.83081
H         -3.87540        0.07443        0.79213
H         -1.24699       -1.22665       -1.52651
H         -2.00774       -2.12864       -0.19365
H         -3.03623       -1.17456       -1.30495
H         -1.67555        2.04228       -0.03580
H         -1.11968        1.14852       -1.46680
H         -2.88485        1.35362       -1.16672
C         -2.85904       -0.01985        1.18434
C         -2.06498       -1.22687       -0.80508
C         -1.90144        1.21440       -0.70917
N         -1.89082       -0.04625        0.07044
O          0.89304       -0.20699       -1.31854
O          0.45165       -0.20256        1.09205
O          2.01449        1.47570        0.13965
S          1.46624        0.12609        0.00711
C          2.80071       -1.02519        0.30075
H          2.41020       -2.03971        0.22204
H          3.56389       -0.84605       -0.45724
H          3.20080       -0.83826        1.29744
