26
1msa1ma1dma_46.log	Energy: -561776.3154231
S          1.19653       -0.95652       -0.11832
O          2.55541       -1.40261       -0.38233
O          0.46140       -0.33644       -1.22663
O          1.17046        0.03681        1.11327
H          1.39048        1.00525        0.77845
C          0.24230       -2.29652        0.54731
H          0.25487       -3.08675       -0.20451
H          0.72434       -2.63386        1.46466
H         -0.77670       -1.93648        0.71660
N         -2.40232       -0.33154        0.00736
C         -2.35320        0.74295        0.98248
C         -3.69933       -0.45860       -0.63279
H         -1.67543       -0.19384       -0.69011
H         -3.04340        0.52318        1.80486
H         -1.34406        0.81208        1.39851
H         -2.63409        1.72858        0.56696
H         -4.44715       -0.75951        0.10945
H         -4.05331        0.47594       -1.10401
H         -3.65758       -1.23613       -1.40004
N          1.64073        2.40607        0.15020
H          2.03319        3.07691        0.80390
C          0.38192        2.90142       -0.43015
H          0.50373        3.84321       -0.97537
H         -0.00500        2.13603       -1.10579
H         -0.34508        3.04765        0.37139
H          2.33357        2.26272       -0.58030
