20
1msa1a1ma_17.log	Energy: -512459.2406856
S          1.17833       -0.16982       -0.08849
O          2.60461        0.01917       -0.27196
O          0.29469        0.04582       -1.24126
O          0.65588        0.73743        1.10446
H          0.09495        1.51550        0.73112
C          0.88542       -1.78827        0.58105
H          1.31052       -2.50106       -0.12699
H          1.39727       -1.85334        1.54115
H         -0.19348       -1.93678        0.67400
N         -2.29755       -1.41373       -0.40358
H         -1.63194       -1.06030       -1.08585
C         -2.82829       -0.31953        0.40075
H         -3.33465        0.47340       -0.17425
H         -3.54310       -0.71152        1.12988
H         -2.00840        0.13747        0.96325
H         -3.03761       -1.89319       -0.90285
N         -0.80422        2.60686       -0.04522
H         -0.87133        2.15633       -0.95602
H         -0.36471        3.51321       -0.16879
H         -1.74269        2.75281        0.31191
