29
1msa2dma_36.log	Energy: -586434.9780967
S          1.12757       -1.14791       -0.02036
O          2.49538       -1.62299       -0.22234
O          0.51740       -0.44738       -1.17534
O          0.98744       -0.27857        1.22263
H          1.02315        1.10413        0.85562
C          0.10816       -2.56798        0.33916
H          0.15295       -3.23509       -0.52234
H          0.51109       -3.05883        1.22508
H         -0.91430       -2.23099        0.51184
N         -3.35968        0.42967       -0.09736
C         -3.01836       -0.56524       -1.10706
C         -2.71568        0.17513        1.18144
H         -3.11338        1.35370       -0.43434
H         -3.41369       -1.53803       -0.79195
H         -3.50366       -0.30769       -2.05261
H         -1.93541       -0.67022       -1.27988
H         -3.11152       -0.75668        1.60156
H         -1.61793        0.07449        1.12626
H         -2.96267        0.97552        1.88655
N          1.06242        2.15131        0.47069
C         -0.24622        2.45867       -0.14903
C          2.19886        2.22747       -0.47847
H          1.23093        2.76798        1.26325
H         -0.44609        1.67265       -0.88040
H         -1.01299        2.44070        0.62626
H         -0.21510        3.44038       -0.62676
H          2.00046        1.52091       -1.28567
H          2.29651        3.24343       -0.86691
H          3.10902        1.92661        0.04093
