34
1msa1eda1tma_19.log	Energy: -645839.8000943
S          1.42736        1.22764       -0.02294
O          2.03313        0.65661        1.19823
O          0.11733        1.87608        0.18577
O          1.36166        0.19990       -1.12461
C          2.53786        2.48536       -0.62882
H          2.11949        2.89919       -1.54632
H          2.61627        3.25573        0.13870
H          3.50846        2.02566       -0.81485
H         -3.57183        1.11648       -1.42180
H         -3.87402       -0.62971       -1.30567
H         -4.55562        0.42512        0.73473
H         -3.15404       -0.60193        1.05716
H         -3.01844        1.65346        2.07304
H         -1.82952        1.54767        0.94554
H         -1.71096       -0.22399       -2.22869
H         -1.22762        0.60879       -0.93178
C         -3.24383        0.18685       -0.93352
C         -3.47646        0.33448        0.56476
N         -1.84522       -0.14985       -1.22470
N         -2.83843        1.53549        1.08339
N          0.66608       -2.05216        0.07819
C         -0.14649       -1.71919        1.27643
H          0.40697       -0.99069        1.87018
H         -1.08166       -1.28232        0.92574
H         -0.33025       -2.63499        1.84436
C         -0.05821       -2.96629       -0.83187
H         -1.00256       -2.48365       -1.09100
H          0.54178       -3.11894       -1.73026
H         -0.22614       -3.92199       -0.32858
C          2.01105       -2.54880        0.45158
H          2.57803       -2.74059       -0.46018
H          2.50490       -1.76686        1.03072
H          1.91017       -3.46813        1.03356
H          0.84140       -1.14009       -0.45216
