29
1msa1ma1tma_01.log	Energy: -586448.7363673
S          1.87874       -0.22247       -0.00002
O          1.45119       -1.63083       -0.00020
O          1.46611        0.52165        1.23087
O          1.46626        0.52196       -1.23077
H         -0.00757        1.50741       -0.79571
C          3.66414       -0.21908        0.00008
H          4.00162       -0.73995        0.89641
H          4.00172       -0.73921       -0.89665
H          4.01021        0.81459        0.00053
N         -0.65678        1.67056       -0.00005
H         -1.33658        0.83827       -0.00015
C         -1.32134        2.98113       -0.00019
H         -1.94644        3.07327        0.88887
H         -0.57417        3.77522        0.00038
H         -1.94537        3.07360       -0.88997
H         -0.00789        1.50748        0.79586
N         -2.20779       -0.62572       -0.00007
C         -3.65037       -0.40921       -0.00007
H         -3.94136        0.15943        0.88860
H         -3.94155        0.15778       -0.88972
H         -4.20762       -1.36060        0.00088
C         -1.77809       -1.34243       -1.20507
H         -2.03246       -0.75399       -2.09219
H         -0.69595       -1.49147       -1.17331
H         -2.27125       -2.32473       -1.28414
C         -1.77803       -1.34154        1.20543
H         -0.69583       -1.49022        1.17397
H         -2.03280       -0.75266        2.09214
H         -2.27084       -2.32398        1.28503
