29
1msa1ma1tma_04.log	Energy: -586448.0809117
S          1.62555       -0.16628        0.07590
O          1.44297       -1.49782        0.69137
O          1.66734        0.95784        1.02857
O          0.59865        0.06140       -1.00844
C          3.19291       -0.18782       -0.77765
H          3.97240       -0.35913       -0.03471
H          3.17657       -0.99264       -1.51241
H          3.33157        0.77844       -1.26286
N         -1.10557        2.28833        0.66851
H         -1.35715        2.97436        1.37329
C         -1.04419        2.92257       -0.64980
H         -0.38741        3.80284       -0.69583
H         -0.66626        2.18933       -1.36700
H         -2.04780        3.23211       -0.96344
H         -0.17408        1.94534        0.91301
N         -1.64684       -0.96690       -0.08303
C         -2.81025       -0.27228       -0.67647
H         -2.81523        0.74642       -0.28432
H         -2.69359       -0.25554       -1.76114
H         -3.72785       -0.80147       -0.40645
C         -1.48292       -2.35206       -0.58095
H         -1.41585       -2.32702       -1.66924
H         -0.55194       -2.74537       -0.16963
H         -2.33848       -2.95580       -0.26778
C         -1.67554       -0.91755        1.40104
H         -0.74513       -1.34940        1.77220
H         -1.74324        0.13149        1.69077
H         -2.54174       -1.48181        1.75702
H         -0.76846       -0.45019       -0.41319
