32
1msa1dma1tma_18.log	Energy: -611101.0325469
S         -0.74312        1.50707       -0.07017
O          0.25422        1.54076       -1.15363
O         -0.19803        1.08300        1.23674
O         -1.95131        0.67121       -0.43772
H         -1.60277       -0.76930       -0.18502
C         -1.38659        3.15848        0.12222
H         -0.55404        3.80701        0.39643
H         -1.81991        3.47008       -0.82812
H         -2.14115        3.14512        0.90841
N          2.93847        0.28326        0.00156
C          2.80024       -0.34632        1.29423
C          3.49393       -0.57359       -1.01872
H          2.07890        0.73213       -0.30252
H          3.78824       -0.51560        1.74066
H          2.22173        0.30327        1.95397
H          2.29216       -1.33415        1.25798
H          4.54008       -0.80853       -0.78580
H          2.96505       -1.54348       -1.13224
H          3.47148       -0.06121       -1.98389
N         -1.25335       -1.78979       -0.03317
C         -1.04194       -1.96561        1.42414
H         -0.37439       -1.17216        1.76406
H         -2.00264       -1.86527        1.93041
H         -0.61563       -2.95445        1.61177
C         -2.28359       -2.70217       -0.56885
H         -3.22086       -2.52883       -0.03883
H         -2.42620       -2.49131       -1.62927
H         -1.96591       -3.73930       -0.43364
C          0.02334       -1.88751       -0.78221
H         -0.16469       -1.66138       -1.83194
H          0.71686       -1.14619       -0.38487
H          0.43639       -2.89326       -0.67144
