20
1msa1a1ma_04.log	Energy: -512467.5387221
S         -1.15287       -0.32205        0.00059
O         -1.61036       -1.71245        0.00511
O         -0.37593        0.05858       -1.22578
O         -0.37940        0.06803        1.22591
C         -2.60486        0.71963       -0.00541
H         -3.18093        0.48678       -0.90133
H         -3.18269        0.49399        0.89121
H         -2.29350        1.76474       -0.00932
N          2.02056       -0.32187        0.00198
H          2.18223        0.71415        0.00162
H          1.37708       -0.46106        0.80554
C          3.22532       -1.16582       -0.00213
H          2.93235       -2.21568       -0.00163
H          3.81402       -0.95248       -0.89443
H          3.82001       -0.95312        0.88634
H          1.37147       -0.46001       -0.79812
N          1.35455        2.36964        0.00008
H          1.67088        3.33260        0.00531
H          0.75281        2.21257        0.80716
H          0.75916        2.21970       -0.81290
