25
1msa1a1eda_17.log	Energy: -571863.7094180
S          1.52525       -0.27039       -0.06503
O          0.90994        0.60494        0.96997
O          2.80665        0.19495       -0.59063
O          0.50719       -0.56284       -1.14897
H         -0.73400        0.39670       -0.96984
C          1.79252       -1.84944        0.72585
H          2.51245       -1.70209        1.53152
H          0.83661       -2.20219        1.11685
H          2.19059       -2.53986       -0.01859
H         -3.41978       -0.89365       -0.88011
H         -3.61720       -1.23553        0.83793
H         -3.10780        1.07005        0.72727
H         -1.58362        0.29936        1.25147
H         -2.17279        1.13398       -1.51001
H         -1.15842        1.93960       -0.40751
H         -2.22404       -2.90846       -0.18191
H         -1.06802       -1.78618       -0.54063
C         -2.87162       -0.98196        0.07716
C         -2.30603        0.38634        0.43648
N         -1.84178       -2.00899        0.08462
N         -1.57104        1.00621       -0.69882
N         -0.13112        3.20702        0.26140
H         -0.44124        3.83299        0.99721
H          0.41240        3.75672       -0.39680
H          0.49896        2.50902        0.67332
