29
1msa1ma1tma_17.log	Energy: -586440.6704359
S          0.74395       -1.32646       -0.07586
O          0.75587       -0.53609        1.17744
O          1.42932       -0.68666       -1.20784
O         -0.67578       -1.72648       -0.42223
H         -1.53517       -0.52086       -0.19653
C          1.57637       -2.86763        0.25596
H          1.07595       -3.36022        1.08948
H          1.53005       -3.47984       -0.64475
H          2.61133       -2.63502        0.50835
N          2.49223        1.96351        0.16471
H          2.31295        1.35789       -0.63059
C          2.02562        3.32142       -0.04527
H          0.94102        3.43707       -0.23265
H          2.27024        3.93454        0.82831
H          2.54751        3.75989       -0.90145
H          2.04782        1.51374        0.95811
N         -2.08702        0.40265       -0.01524
C         -1.22954        1.50008       -0.52839
H         -0.28644        1.48254        0.01962
H         -1.02338        1.32143       -1.58414
H         -1.74129        2.45620       -0.39225
C         -3.36834        0.31048       -0.74388
H         -3.16110        0.17707       -1.80621
H         -3.92440       -0.55218       -0.37513
H         -3.94831        1.22376       -0.58796
C         -2.27090        0.50131        1.45179
H         -2.89231       -0.33129        1.78394
H         -1.28565        0.42409        1.91455
H         -2.75296        1.45140        1.69639
