31
1msa1dma1eda_19.log	Energy: -621183.1825243
S          2.05678       -0.40244        0.00312
O          1.21246       -0.13163        1.19949
O          2.44468        0.81753       -0.72309
O          1.41738       -1.43381       -0.88111
C          3.55751       -1.16470        0.59922
H          4.05549       -0.45371        1.25887
H          3.29385       -2.07412        1.13933
H          4.18549       -1.39518       -0.26168
H         -1.48475       -2.46992        0.26177
H         -1.02441       -1.07186        1.24271
H         -3.46724       -1.60267        1.52508
H         -3.25187       -0.01894        0.77364
H         -4.01402       -2.46588       -0.64372
H         -4.78026       -1.02260       -0.62040
H         -0.18041       -1.02670       -1.02076
H         -1.81156       -0.84730       -1.56652
C         -1.64744       -1.39780        0.40653
C         -3.12429       -1.09475        0.61348
N         -1.15781       -0.69220       -0.79762
N         -3.86845       -1.46279       -0.59230
H         -1.07369        0.35633       -0.57144
N         -0.67199        1.88559        0.08732
C         -1.64252        2.48249        0.99528
C         -0.18983        2.81176       -0.93586
H          0.12607        1.53339        0.62245
H         -2.56557        2.71916        0.45333
H         -1.88140        1.77441        1.79441
H         -1.27506        3.41060        1.45840
H         -0.99811        3.04188       -1.63921
H          0.17005        3.75724       -0.50382
H          0.63995        2.34192       -1.46842
