17
1msa2a_06.log	Energy: -487794.0005557
S         -1.12142       -0.14853        0.07727
O         -0.29415       -1.24319        0.54856
O         -2.56964       -0.28037        0.07654
O         -0.68370        0.16253       -1.46140
H         -1.48146        0.10125       -2.00596
C         -0.61614        1.35019        0.87220
H         -0.77473        1.19835        1.94109
H          0.44765        1.52065        0.64176
H         -1.24578        2.15821        0.49953
N          2.76870       -1.46892        0.05790
H          1.76753       -1.57774        0.20979
H          3.24718       -1.89026        0.84693
H          3.01648       -2.00341       -0.76779
N          2.46764        1.61220       -0.10700
H          2.46470        1.89820       -1.08087
H          2.72227        0.61869       -0.07772
H          3.20130        2.13677        0.35787
