26
1msa1a1tma_12.log	Energy: -561775.4561010
S          1.27018       -0.57102        0.22349
O          0.26085       -0.38914        1.25082
O          2.60966       -1.00678        0.61619
O          1.40608        0.75420       -0.63549
H          2.33518        1.17877       -0.48155
C          0.62720       -1.69117       -1.00030
H          0.44100       -2.64134       -0.49847
H         -0.30377       -1.27572       -1.38709
H          1.36746       -1.80687       -1.79130
N          3.81845        1.65617       -0.11529
H          4.43031        1.91035       -0.88367
H          4.17431        0.80563        0.31758
H          3.85078        2.39926        0.57547
N         -3.33184        0.40286       -0.22016
C         -3.10416       -1.01856       -0.02078
H         -3.87370       -1.42494        0.64292
H         -3.17899       -1.54117       -0.98068
H         -2.11658       -1.23074        0.42870
C         -2.38400        0.96000       -1.16958
H         -2.46399        0.43065       -2.12538
H         -2.61883        2.01344       -1.35133
H         -1.33806        0.90393       -0.81663
C         -3.27692        1.11733        1.04575
H         -3.49138        2.17746        0.87860
H         -4.03758        0.72129        1.72583
H         -2.29060        1.03131        1.53647
