34
1msa1eda1tma_29.log	Energy: -645837.4532779
S          1.73669       -0.84588        0.18044
O          1.00879       -1.62190        1.19173
O          2.54339        0.27725        0.70604
O          0.81770       -0.34670       -0.91953
H          0.28375        1.03318       -0.47906
C          2.85552       -1.96124       -0.65003
H          3.37915       -1.41000       -1.43103
H          3.55798       -2.33856        0.09367
H          2.27174       -2.77757       -1.07568
H         -3.63899       -2.12705       -0.68666
H         -2.07288       -2.88718       -0.45228
H         -2.80558       -1.95156        1.63748
H         -1.36821       -1.08641        1.07748
H         -4.11083       -0.09029        0.66226
H         -3.13779        0.40926        1.85688
H         -2.50837       -0.28328       -1.71772
H         -1.05077       -1.00732       -1.50241
C         -2.57624       -1.91593       -0.49808
C         -2.43179       -1.25221        0.87325
N         -2.04587       -1.18218       -1.63685
N         -3.13274        0.04415        0.90876
N          0.01172        2.02789       -0.16809
C          1.12956        2.89417       -0.60898
H          2.04814        2.49769       -0.17328
H          1.19537        2.85230       -1.69692
H          0.94624        3.92086       -0.28215
C         -1.27601        2.36710       -0.81518
H         -1.16669        2.24166       -1.89378
H         -2.04203        1.68786       -0.42574
H         -1.53231        3.40535       -0.58676
C         -0.10492        2.00000        1.31064
H         -0.88708        1.28904        1.57459
H          0.84873        1.66715        1.72217
H         -0.36414        2.99947        1.66961
