35
1msa2tma_05.log	Energy: -635761.6118779
N          3.70435       -0.25867        0.08601
C          5.02191       -0.41108        0.67171
H          5.46903        0.57226        0.84768
H          4.94458       -0.92908        1.63287
H          5.70893       -0.99032        0.02302
C          3.06454       -1.54898       -0.11547
H          2.96618       -2.06661        0.84371
H          2.06126       -1.40769       -0.52434
H          3.64297       -2.19631       -0.80378
C          3.75468        0.49978       -1.15406
H          2.74059        0.64576       -1.53634
H          4.19875        1.48283       -0.96685
H          4.36006       -0.00870       -1.93006
S         -0.18812        0.62708        0.06828
O          0.33117        0.89495       -1.27785
O         -0.35001       -0.81081        0.39683
O         -1.49677        1.35489        0.33695
H         -2.59097        0.41631        0.14813
C          0.96341        1.31642        1.23875
H          1.93202        0.82800        1.07909
H          1.03577        2.38761        1.04670
H          0.58386        1.12976        2.24372
N         -3.40557       -0.30787       -0.03243
C         -3.07999       -0.97752       -1.31404
H         -3.00307       -0.21918       -2.09421
H         -2.11333       -1.46967       -1.20029
H         -3.86313       -1.69990       -1.56014
C         -3.39057       -1.26296        1.09806
H         -2.39004       -1.69397        1.15424
H         -3.60046       -0.71883        2.02000
H         -4.14908       -2.03475        0.93869
C         -4.66483        0.45792       -0.10837
H         -4.82169        0.97533        0.83885
H         -4.58267        1.19425       -0.90876
H         -5.50109       -0.21833       -0.30640
