20
1msa1a1ma_14.log	Energy: -512458.9946366
S         -0.63717       -0.62870       -0.15821
O          0.15703       -0.80969       -1.36238
O         -2.03829       -1.05002       -0.17167
O         -0.58345        0.90066        0.27585
H         -1.52745        1.30817        0.23538
C          0.21073       -1.39913        1.19799
H          0.26123       -2.46571        0.97498
H          1.21124       -0.95637        1.24198
H         -0.35779       -1.21914        2.11007
N          2.65382        0.50339        0.08864
H          2.28710        0.10440       -0.77115
C          4.08462        0.76866       -0.01884
H          4.36567        1.45898       -0.82849
H          4.45055        1.18743        0.92334
H          4.61357       -0.17467       -0.18189
H          2.13206        1.35964        0.24548
N         -3.08146        1.73228        0.10943
H         -3.30050        2.29740       -0.70454
H         -3.51950        2.15851        0.91917
H         -3.48248        0.80601       -0.02870
