32
1msa1dma1tma_11.log	Energy: -611101.6768743
S         -0.06405        1.58083       -0.00007
O         -1.01262        2.65082       -0.31960
O          0.32561        0.73108       -1.15655
O         -0.56015        0.69026        1.12768
H         -1.41026       -0.34922        0.51005
C          1.42475        2.31996        0.64149
H          1.79493        3.01403       -0.11406
H          1.16821        2.85347        1.55696
H          2.15306        1.52658        0.82507
N          2.76308       -0.75001        0.00800
C          2.14533       -1.60774        0.99901
C          3.82105       -1.40460       -0.73559
H          2.05360       -0.37742       -0.61957
H          2.86619       -1.84079        1.79159
H          1.29584       -1.08594        1.45042
H          1.79120       -2.57410        0.58648
H          4.64529       -1.65952       -0.05920
H          3.49991       -2.33855       -1.23428
H          4.21090       -0.72482       -1.49793
N         -2.04716       -1.08414        0.00254
C         -1.14255       -2.09725       -0.58669
H         -0.41458       -1.56918       -1.20472
H         -0.62327       -2.61699        0.21934
H         -1.72368       -2.80771       -1.18065
C         -2.95442       -1.65301        1.01902
H         -2.35881       -2.11539        1.80712
H         -3.55148       -0.84687        1.44681
H         -3.60838       -2.39885        0.55932
C         -2.78429       -0.33618       -1.04592
H         -3.31182        0.49512       -0.57696
H         -2.05847        0.06603       -1.75328
H         -3.48703       -1.00838       -1.54534
