28
1msa1ma1eda_130.log	Energy: -596513.7885577
S         -1.34988       -0.86563        0.11932
O         -0.33044       -1.33194        1.06733
O         -0.77818       -0.33975       -1.16549
O         -2.30579        0.13141        0.69976
H         -1.93705        1.68210        0.04633
C         -2.33086       -2.28627       -0.32868
H         -1.66452       -3.02513       -0.77443
H         -2.78517       -2.67982        0.58079
H         -3.09470       -1.97380       -1.04044
H          1.51501        0.50458       -0.70988
H          2.97985        1.37679       -0.23279
H          3.76970       -0.66439        0.98876
H          2.26424       -1.48394        0.57591
H          2.88695       -1.41944       -1.70857
H          4.25580       -0.57813       -1.39085
H          0.93768        0.32970        1.59587
H          2.24537        1.21060        2.04437
C          2.26594        0.60330        0.08360
C          2.98842       -0.74350        0.22126
N          1.57967        1.06249        1.29185
N          3.59753       -1.24736       -1.00469
N         -1.42782        2.21404       -0.70471
H         -0.98693        1.39296       -1.18713
C         -0.43026        3.17112       -0.16708
H          0.10329        3.63430       -0.99774
H         -0.94579        3.93487        0.41585
H          0.26935        2.60932        0.46677
H         -2.10484        2.64968       -1.32641
