29
1msa2dma_08.log	Energy: -586441.2000903
S          1.35802       -0.85200       -0.01228
O          0.62655       -2.11760       -0.09594
O          1.07589       -0.06347        1.23060
O          1.19692        0.02440       -1.22194
H          0.33442        1.40937       -0.76448
C          3.09654       -1.25727        0.05275
H          3.26471       -1.87435        0.93566
H          3.34634       -1.80873       -0.85398
H          3.67181       -0.33316        0.11284
N         -2.93363       -0.48564        0.00568
C         -2.52233       -1.10032        1.26628
C         -2.58292       -1.30748       -1.15146
H         -3.93956       -0.34821        0.01914
H         -1.43478       -1.20959        1.27885
H         -2.81720       -0.45698        2.10139
H         -2.96072       -2.09984        1.42273
H         -1.49864       -1.44193       -1.18473
H         -3.04117       -2.30986       -1.12142
H         -2.90324       -0.80540       -2.06945
N          0.01272        2.06639       -0.00682
C         -1.41638        2.41108       -0.14696
C          0.93989        3.21055        0.06567
H          0.18504        1.42905        0.80096
H         -1.55857        2.95579       -1.08256
H         -1.99965        1.47894       -0.15041
H         -1.71604        3.04209        0.69274
H          0.86641        3.79381       -0.85352
H          0.68241        3.83566        0.92237
H          1.95298        2.82409        0.17878
