31
1msa1dma1eda_137.log	Energy: -621171.0903409
S          0.44267       -0.88467        0.21727
O         -0.24248       -0.77040        1.50666
O          1.80109       -1.53149        0.30995
O          0.56681        0.42377       -0.51684
H          2.22152        0.91117       -0.50420
C         -0.53449       -1.94257       -0.82687
H         -0.60729       -2.91234       -0.33254
H         -1.52847       -1.49457       -0.94718
H         -0.02847       -2.04057       -1.78779
H         -4.42568        0.10366        1.10814
H         -2.83372       -0.68073        1.20217
H         -2.55844        1.72237        1.31519
H         -1.84241        1.10575       -0.17391
H         -4.39848        2.52950        0.01783
H         -3.09573        2.89559       -0.89977
H         -4.30568       -1.52715       -0.62889
H         -4.09733       -0.07265       -1.36448
C         -3.47892       -0.06684        0.56544
C         -2.79330        1.27402        0.33929
N         -3.67599       -0.73765       -0.72030
N         -3.63097        2.12822       -0.51139
N          3.18141        0.63026       -0.18281
C          3.50615        1.33642        1.07098
C          4.18738        0.74231       -1.25035
H          2.93399       -0.37870        0.03880
H          3.62269        2.40347        0.87342
H          2.68715        1.17614        1.77323
H          4.43050        0.93193        1.48675
H          4.33780        1.79284       -1.50592
H          5.12954        0.30936       -0.90966
H          3.83040        0.19873       -2.12525
