33
1msa2eda_24.log	Energy: -655915.6180129
S         -1.88471        0.65380        0.04009
O         -2.47445       -0.43715       -0.75089
O         -0.76828        1.36656       -0.67467
O         -1.44712        0.25525        1.40464
C         -3.16545        1.88010        0.24975
H         -3.47648        2.21706       -0.73941
H         -3.99793        1.40900        0.77299
H         -2.76233        2.70890        0.83175
H          2.10623        2.32193        1.53386
H          3.18644        0.91590        1.64133
H          3.97336        2.34258       -0.16694
H          3.33491        0.86646       -0.86882
H          1.35909        2.08198       -1.52220
H          1.92779        3.44843       -0.82173
H          0.71615        0.38614        1.67115
H          0.58303        0.91856        0.15267
C          2.44642        1.42193        1.01351
C          3.04660        1.78849       -0.35012
N          1.28828        0.52333        0.83360
N          2.20502        2.56636       -1.23704
H          1.58631       -0.43122        0.46842
H          1.57140       -4.06338        0.06422
H          1.53957       -3.07021        1.53312
H         -0.75497       -3.71509        0.76278
H         -0.53924       -1.96986        0.81238
H         -0.81083       -3.58859       -1.56180
H         -1.29040       -2.03892       -1.25004
H          2.96820       -2.21227       -0.34998
H          1.55423       -1.93789       -1.15142
C          1.28190       -3.08244        0.46806
C         -0.22503       -2.87838        0.28729
N          1.98576       -1.99016       -0.22395
N         -0.53720       -2.71466       -1.12938
