23
1msa2ma_19.log	Energy: -537117.0261380
S         -1.30226       -0.06234       -0.09561
O         -2.49666       -0.88748       -0.18935
O         -0.43187        0.00244       -1.27488
O         -0.42562       -0.50267        1.14748
H          0.16472       -1.32091        0.87105
C         -1.74347        1.58134        0.40712
H         -2.43501        1.95922       -0.34724
H         -2.23494        1.51724        1.37774
H         -0.83149        2.18491        0.43695
N          1.06171       -2.45823        0.28748
H          1.35174       -3.15116        0.97078
C          2.22246       -1.83756       -0.37033
H          2.84695       -2.55767       -0.90959
H          1.85380       -1.08377       -1.06902
H          2.83126       -1.33578        0.38472
H          0.48335       -2.93863       -0.39744
N          1.35604        2.42059       -0.43585
H          0.99699        1.72364       -1.08359
C          2.25934        1.80547        0.53170
H          3.15164        1.33241        0.09227
H          2.59610        2.55939        1.24928
H          1.70976        1.04220        1.09053
H          1.83030        3.13588       -0.97499
