28
1msa1ma1eda_05.log	Energy: -596523.0692138
S          1.88379       -0.42931       -0.03776
O          2.54446        0.79796       -0.50463
O          1.06625       -1.10242       -1.10451
O          1.07954       -0.24204        1.20178
C          3.17014       -1.60225        0.36252
H          3.74854       -1.79066       -0.54211
H          3.79910       -1.15978        1.13545
H          2.70453       -2.51986        0.72225
H         -1.86559       -2.07595       -0.04102
H         -1.22754       -0.97449        1.18778
H         -3.70228       -1.32688        1.48732
H         -3.34564        0.35707        1.09064
H         -4.41444       -1.62902       -0.77916
H         -5.01894       -0.15820       -0.40289
H         -0.45875       -0.51676       -1.05044
H         -2.08429       -0.08235       -1.46419
C         -1.91094       -1.05105        0.33929
C         -3.33969       -0.66263        0.69117
N         -1.39441       -0.15096       -0.71445
N         -4.15959       -0.68103       -0.52157
H         -1.20677        0.81160       -0.29057
N         -0.56394        2.16299        0.59349
H         -1.13173        2.66508        1.26835
C          0.13083        3.10147       -0.30074
H          0.67067        3.88939        0.23762
H          0.86214        2.54162       -0.88808
H         -0.59106        3.57125       -0.97573
H          0.12309        1.60845        1.11215
