20
1msa1a1ma_23.log	Energy: -512450.4632413
S          1.37517       -0.19496       -0.11514
O          0.47482       -0.83383       -1.05553
O          2.75413       -0.64356       -0.00743
O          0.72125       -0.35512        1.37095
H          1.38002       -0.79117        1.93020
C          1.28595        1.56071       -0.32088
H          1.61306        1.76621       -1.34153
H          0.24167        1.87498       -0.16357
H          1.96158        2.01981        0.40090
N         -2.58450       -0.59620       -0.72283
H         -3.30778       -0.89412       -1.36808
C         -2.64373       -1.36943        0.51750
H         -2.53077       -2.45404        0.37985
H         -1.84303       -1.03197        1.18101
H         -3.59826       -1.18436        1.01947
H         -1.68624       -0.74877       -1.17429
N         -1.84976        2.22939        0.22341
H         -2.08155        2.28459        1.21003
H         -2.24814        1.35554       -0.14226
H         -2.31850        3.00269       -0.23713
