23
1msa1a1dma_29.log	Energy: -537108.5033910
S          1.55060       -0.21650       -0.04400
O          0.96274       -0.88941        1.10636
O          0.97749       -0.39421       -1.36185
O          3.10707       -0.70367       -0.10919
H          3.21030       -1.43111        0.52063
C          1.75940        1.50906        0.28035
H          0.74493        1.94051        0.29065
H          2.25706        1.61938        1.24355
H          2.35849        1.93069       -0.52724
N         -2.94474       -0.18930        0.04112
C         -2.54681       -1.01525        1.17656
C         -2.55605       -0.77165       -1.23945
H         -3.95050       -0.05652        0.05812
H         -1.45560       -1.07526        1.21559
H         -2.89517       -0.55431        2.10519
H         -2.94541       -2.04254        1.12371
H         -1.46503       -0.81441       -1.30340
H         -2.94984       -1.79091       -1.38937
H         -2.91579       -0.13687       -2.05447
N         -1.34160        2.45634        0.09424
H         -1.72762        3.09391        0.78342
H         -1.90393        1.59574        0.11933
H         -1.48475        2.88175       -0.81655
