34
1msa1eda1tma_46.log	Energy: -645833.5552644
S          0.34290        1.03357       -0.17825
O          1.47029        1.98324       -0.09780
O          0.02867        0.36295        1.10573
O          0.56421       -0.00834       -1.25642
H          1.31239       -1.12547       -0.53002
C         -1.09644        1.94369       -0.69074
H         -1.26472        2.72671        0.05003
H         -0.88962        2.38098       -1.66788
H         -1.94511        1.25236       -0.72657
H          3.93570       -2.41026        0.23025
H          3.34809       -2.08038       -1.42341
H          4.93967       -0.29462       -0.51995
H          3.35926        0.33554       -1.00634
H          4.44106        0.38712        1.60714
H          3.02992        1.04871        1.03201
H          1.55927       -2.65985        0.23284
H          1.94641       -1.23160        1.01718
C          3.34719       -1.72824       -0.38955
C          3.87315       -0.29171       -0.27140
N          1.95076       -1.72984        0.11197
N          3.60342        0.20767        1.07127
N         -3.41416       -0.38737       -0.01125
C         -3.41351        0.03053        1.38113
H         -2.38351        0.19964        1.70802
H         -3.97023        0.96756        1.48442
H         -3.88001       -0.72199        2.04675
C         -4.76021       -0.56384       -0.52004
H         -5.32285        0.36840       -0.41134
H         -4.72482       -0.82007       -1.58346
H         -5.31285       -1.36469        0.01034
C         -2.61146       -1.58273       -0.20088
H         -2.53946       -1.81506       -1.26788
H         -1.60356       -1.40056        0.18096
H         -3.03912       -2.46182        0.32176
