20
1msa1a1ma_11.log	Energy: -512459.4743896
S         -0.50299       -0.63604       -0.14668
O          0.32484       -0.74401       -1.33809
O         -1.87525       -1.14041       -0.20117
O         -0.55064        0.88090        0.32168
H         -1.51449        1.23901        0.25340
C          0.36080       -1.38918        1.20905
H          0.42081       -2.45598        0.98839
H          1.36362       -0.94969        1.24552
H         -0.20594       -1.21398        2.12303
N          3.06977        0.02153       -0.02647
H          4.03543       -0.25078       -0.17262
C          2.94680        1.47556        0.07042
H          3.31979        2.02402       -0.80719
H          1.89272        1.73109        0.20581
H          3.49169        1.82961        0.95081
H          2.52909       -0.32091       -0.81668
N         -3.07564        1.58787        0.08011
H         -3.29078        2.14590       -0.73981
H         -3.55458        1.99521        0.87633
H         -3.43570        0.64716       -0.07172
