26
1msa1ma1dma_51.log	Energy: -561775.7339339
S         -0.54506       -1.00289        0.02787
O          0.21583       -1.70541       -0.99222
O         -1.94809       -1.37065        0.23043
O         -0.48637        0.55849       -0.24662
H         -1.44445        0.90698       -0.52354
C          0.33563       -1.11457        1.56577
H          0.42244       -2.17547        1.80378
H          1.31820       -0.65416        1.41025
H         -0.23682       -0.58999        2.33069
N          2.69066        0.66041        0.09297
C          3.35761       -0.22553       -0.84983
C          3.51782        1.78040        0.50639
H          1.82563        1.00093       -0.31633
H          4.20152       -0.71721       -0.35251
H          2.65537       -0.99455       -1.18014
H          3.75163        0.29851       -1.73836
H          4.38260        1.40832        1.06705
H          3.90117        2.38185       -0.33714
H          2.94667        2.43764        1.16827
N         -2.89516        1.27125       -0.83124
H         -3.03174        2.01219       -1.51186
C         -3.59092        1.56545        0.43032
H         -4.66727        1.71838        0.29993
H         -3.43026        0.72550        1.10870
H         -3.15682        2.46238        0.87738
H         -3.25726        0.40935       -1.23271
