13
1msa1a.log	Energy: -452313.1983907
H         -1.40485       -0.21413       -0.75842
H         -2.50695        0.01733        0.93590
H         -3.42460       -0.94149       -0.04812
H         -3.38259        0.68443       -0.29058
N         -2.82792       -0.12148       -0.02084
O          1.31384        1.35270       -0.32877
O         -0.43388       -0.23134       -1.10651
O         -0.17022        0.17025        1.31840
S          0.56748        0.17078        0.05489
C          1.67829       -1.22042        0.04003
H          2.44066       -1.02877        0.79600
H          1.11597       -2.12298        0.27708
H          2.13044       -1.28682       -0.94944
