37
2msa1ma1eda_559.log	Energy: -1013347.1686567
S          2.60973       -1.17104        0.32611
O          3.28317       -2.26083        1.01003
O          2.49044        0.11634        1.00966
O          1.15710       -1.64321       -0.12532
H          0.44387       -1.19353        0.42562
C          3.36222       -0.92482       -1.26206
H          4.40789       -0.67636       -1.07381
H          3.29076       -1.86166       -1.81531
H          2.84129       -0.10149       -1.76696
S         -1.09263        0.90535        0.95699
O         -0.82260        1.29596       -0.44042
O         -0.76648       -0.53377        1.21972
O         -2.51089        1.16426        1.36576
H         -3.28207       -0.21190        0.98569
C         -0.05290        1.88436        2.01010
H          0.97934        1.62128        1.77003
H         -0.26116        2.93484        1.80615
H         -0.28450        1.63296        3.04509
N          1.74887        1.83915       -2.02326
H          1.47357        2.31205       -2.87735
C          2.58972        2.71106       -1.20380
H          2.11861        3.66683       -0.92787
H          2.85015        2.18103       -0.28360
H          3.52067        2.93383       -1.73519
H          0.89360        1.61639       -1.51695
H         -4.77000       -1.83102       -1.04979
H         -5.15481       -0.17611       -0.50444
H         -3.86322       -0.26085       -2.71817
H         -3.06480        0.68772       -1.45831
H         -2.10814       -1.76689       -2.58416
H         -1.31911       -0.62715       -1.67762
H         -4.07480       -1.70985        1.20726
H         -2.69569       -1.58397        0.25065
C         -4.34752       -0.87939       -0.71704
C         -3.35530       -0.32556       -1.74986
N         -3.58374       -1.12868        0.53302
N         -2.17057       -1.17320       -1.76834
