32
2msa1a1dma_170.log	Energy: -953946.1646288
S         -1.82557       -1.13460       -0.17332
O         -0.83648       -0.90449       -1.23117
O         -3.16675       -1.51534       -0.60345
O         -1.91933        0.14830        0.73352
H         -2.83722        0.62272        0.59383
C         -1.17220       -2.33142        0.95768
H         -1.01602       -3.25056        0.39121
H         -0.22650       -1.94270        1.34195
H         -1.90481       -2.48301        1.74993
S          2.53455       -0.67976        0.11149
O          3.56339       -1.69060        0.24997
O          1.47594       -0.59178        1.11690
O          1.84561       -0.86979       -1.31726
H          0.85850       -0.85146       -1.23870
C          3.29793        0.91129       -0.06604
H          3.84545        1.09726        0.85948
H          3.98683        0.85816       -0.90950
H          2.51849        1.66894       -0.21922
N         -4.26235        1.19341        0.28702
H         -4.82966        1.43043        1.09446
H         -4.69757        0.40958       -0.19582
H         -4.25779        1.98974       -0.34263
N          0.77577        3.04557       -0.15468
C          0.29758        2.75101        1.19007
C         -0.15396        2.61793       -1.18920
H          0.95635        4.03927       -0.24621
H          0.21386        1.66785        1.31384
H          1.01627        3.12407        1.92535
H         -0.68986        3.19554        1.40697
H         -0.26877        1.53152       -1.14997
H         -1.15993        3.06346       -1.08107
H          0.23969        2.88291       -2.17416
