38
2msa2dma_221.log	Energy: -1003272.1986917
S          2.02727       -0.43532        0.98689
O          2.13482       -1.19152        2.23095
O          0.60888       -0.12538        0.58299
O          2.68980       -1.08167       -0.19549
H          1.58459       -1.79617       -1.03683
C          2.82897        1.13753        1.20453
H          2.39325        1.60303        2.08989
H          3.89133        0.94834        1.36212
H          2.65231        1.75795        0.31955
S         -2.57638        0.00648        0.30196
O         -2.60896       -1.44742        0.16084
O         -2.23226        0.77703       -0.88828
O         -1.65537        0.41720        1.51553
H         -0.68212        0.20040        1.28353
C         -4.13489        0.57128        0.94109
H         -4.88857        0.33092        0.19087
H         -4.33614        0.04770        1.87514
H         -4.07214        1.64781        1.09657
N          1.37185        3.10719       -1.07807
C          0.32039        3.39418       -0.11114
C          0.96210        2.11003       -2.05688
H          1.64794        3.96152       -1.54932
H          0.09402        2.48049        0.44607
H          0.66713        4.15379        0.59559
H         -0.61985        3.73853       -0.57293
H          0.77123        1.17149       -1.52944
H          0.04118        2.37788       -2.60232
H          1.76939        1.94904       -2.77820
N          0.84681       -2.37531       -1.56090
C         -0.01520       -1.48337       -2.37474
C          0.10008       -3.18325       -0.56165
H          1.37270       -2.99741       -2.17335
H         -0.52334       -0.78769       -1.70778
H          0.61465       -0.92998       -3.07184
H         -0.75137       -2.08088       -2.91474
H         -0.48701       -2.50484        0.05622
H         -0.56742       -3.87324       -1.08015
H          0.81943       -3.72483        0.05294
