32
2msa2ma_74.log	Energy: -953963.0539708
S          1.60021       -1.32477        0.16950
O          2.10594       -0.29951        1.08258
O          1.36558       -0.88374       -1.21269
O          0.33932       -2.02370        0.74486
H         -0.49978       -1.34193        0.83165
C          2.73437       -2.69127        0.14603
H          3.67929       -2.31361       -0.24576
H          2.85496       -3.05491        1.16606
H          2.32827       -3.46588       -0.50364
S         -2.54258       -0.19238       -0.13448
O         -3.88776       -0.53653        0.29957
O         -1.48699       -0.43009        0.93276
O         -2.37421        1.19775       -0.64922
H         -1.15639        2.00802        0.06906
C         -2.09566       -1.27208       -1.48469
H         -2.20390       -2.30320       -1.14580
H         -2.78525       -1.06856       -2.30429
H         -1.06398       -1.06698       -1.77602
N          1.73396        2.13051       -1.30493
H          1.60498        1.12532       -1.44149
C          3.05006        2.37649       -0.70082
H          3.88379        2.04194       -1.33001
H          3.17385        3.44580       -0.50635
H          3.10068        1.83771        0.24762
H          1.67551        2.56213       -2.22233
N         -0.37507        2.62087        0.43247
H          0.44065        2.51686       -0.25490
C          0.03518        2.23755        1.80432
H          0.73383        2.98053        2.19240
H         -0.84491        2.17030        2.44296
H          0.52441        1.26572        1.75598
H         -0.71927        3.57789        0.39974
