43
2msa1eda1tma_193.log	Energy: -1062673.3316854
S          3.46625       -0.36764        0.00063
O          4.09067        0.84357       -0.53886
O          2.46683       -0.96887       -0.94537
O          2.86058       -0.17795        1.35361
H          1.71468        0.97177        1.41400
C          4.73592       -1.59980        0.21250
H          5.18533       -1.78703       -0.76287
H          5.47642       -1.20598        0.90895
H          4.27522       -2.50482        0.60854
S         -0.85079       -1.21283       -0.10055
O         -1.12536       -0.53588       -1.36867
O         -0.69941       -0.34620        1.07341
O          0.38301       -2.16573       -0.23986
H          1.25284       -1.66096       -0.50525
C         -2.12996       -2.38989        0.22563
H         -3.04753       -1.79667        0.33119
H         -2.18745       -3.07437       -0.62047
H         -1.88235       -2.91754        1.14647
H          1.23210        3.77218        0.59299
H          2.65489        2.71794        0.30298
H          1.36153        2.99988       -1.79160
H          1.30404        1.33008       -1.25304
H         -0.90151        3.19671       -1.29822
H         -0.90255        1.54102       -1.36117
H          1.05459        2.23785        2.29924
H          0.13189        1.48379        1.13100
C          1.56414        2.76598        0.32559
C          0.96217        2.34164       -1.01152
N          1.07933        1.82024        1.37269
N         -0.49355        2.35498       -0.91220
N         -4.41211        0.01541        0.18710
C         -5.70584       -0.21511        0.80445
H         -6.16369       -1.11610        0.38453
H         -5.58104       -0.36430        1.88122
H         -6.40550        0.62918        0.65168
C         -3.74581        1.16791        0.77339
H         -3.60103        1.00428        1.84530
H         -2.76045        1.30316        0.32008
H         -4.32816        2.09982        0.63653
C         -4.52851        0.15496       -1.25557
H         -3.53237        0.25476       -1.69489
H         -4.99772       -0.73944       -1.67742
H         -5.13836        1.03233       -1.54505
