42
2msa2eda_44.log	Energy: -1072770.1520510
S         -2.50417       -0.11942       -0.28886
O         -2.50958       -1.32084       -1.14745
O         -2.79602        1.15512       -0.95711
O         -1.21658       -0.04903        0.50561
C         -3.77715       -0.37016        0.94080
H         -4.73539       -0.42412        0.42312
H         -3.57384       -1.30380        1.46660
H         -3.76291        0.47086        1.63440
S          3.06320       -0.03915       -0.08631
O          2.82453        1.34458       -0.59236
O          2.87005       -1.07591       -1.13868
O          2.27738       -0.32545        1.13348
C          4.79254       -0.10125        0.34508
H          5.01232       -1.09935        0.72437
H          5.37412        0.10721       -0.55300
H          4.97961        0.65233        1.11026
H          0.57973        3.73441       -1.13818
H         -0.61031        2.47892       -1.56962
H         -1.74398        4.59269       -0.85550
H         -2.13345        3.21530        0.17417
H         -0.31260        5.41358        0.86723
H         -1.55688        4.80441        1.73572
H          1.33444        1.85962       -0.02945
H          0.45533        2.72092        1.13631
C         -0.21695        3.08977       -0.75640
C         -1.33164        3.90235       -0.10868
N          0.38184        2.19305        0.26070
N         -0.81361        4.56070        1.09277
H         -0.22361        1.35797        0.42446
H          1.10159       -3.95119        0.08359
H          1.13310       -2.65632        1.31592
H         -0.68289       -4.38990        1.69858
H         -1.30570       -2.74653        1.53470
H         -2.20113       -4.82441        0.08114
H         -2.21129       -3.28575       -0.51534
H          1.32391       -1.76663       -0.89689
H         -0.18685       -2.45003       -1.30144
C          0.54844       -3.11467        0.51593
C         -0.82840       -3.57173        0.98720
N          0.39312       -2.08697       -0.54137
N         -1.62002       -4.03039       -0.15068
H         -0.10639       -1.26149       -0.14985
