38
2msa1ma1tma_12.log	Energy: -1003293.6735027
S         -1.95302       -1.38929       -0.55023
O         -2.84147       -2.54733       -0.54850
O         -1.14376       -1.23716        0.71095
O         -2.62729       -0.08332       -0.84151
H         -1.95829        1.09422       -0.02334
C         -0.76275       -1.60662       -1.86368
H         -0.23888       -2.55073       -1.70387
H         -1.31482       -1.64682       -2.80342
H         -0.06321       -0.76736       -1.85209
S          2.37900        0.50676       -0.47308
O          2.21207        0.86937        0.95449
O          1.29820        1.01961       -1.34166
O          2.61286       -0.96415       -0.64697
H          1.83505       -1.86806        0.45178
C          3.89026        1.27767       -1.03153
H          3.78069        2.35623       -0.91534
H          4.71232        0.90652       -0.41945
H          4.03933        1.01716       -2.07946
N          1.22480       -2.30696        1.19909
H          0.24334       -1.95220        1.00439
C          1.67596       -1.87857        2.54230
H          0.95111       -2.20037        3.29041
H          2.65420       -2.31128        2.75384
H          1.75991       -0.79148        2.52193
H          1.23007       -3.31883        1.09794
N         -1.75796        2.00731        0.48817
C         -0.86214        1.73422        1.63954
H         -1.30415        0.93414        2.23311
H          0.11524        1.41600        1.27225
H         -0.76267        2.65010        2.22885
C         -1.13029        2.92321       -0.49584
H         -0.19947        2.46794       -0.84196
H         -1.81652        3.05119       -1.33414
H         -0.93914        3.88615       -0.01514
C         -3.08808        2.48519        0.92737
H         -3.73787        2.56744        0.05579
H         -3.51029        1.75549        1.61870
H         -2.98222        3.45580        1.41794
