37
2msa1ma1eda_53.log	Energy: -1013371.7491690
S         -2.17390       -1.02992       -0.74169
O         -3.48250       -1.67042       -0.72965
O         -1.55310       -0.90234        0.63208
O         -2.12191        0.29553       -1.42440
H         -0.95216        1.28447       -0.80882
C         -1.05138       -2.08193       -1.65551
H         -1.04361       -3.06624       -1.18405
H         -1.43169       -2.16258       -2.67421
H         -0.05351       -1.63633       -1.65643
S          2.57138        0.27422       -0.43765
O          2.08552        1.16925       -1.50815
O          2.37024       -1.17435       -0.71640
O          2.01102        0.64601        0.90200
H          1.22100       -0.87611        1.80983
C          4.33456        0.52067       -0.33122
H          4.76890        0.25178       -1.29428
H          4.51852        1.57141       -0.10705
H          4.72715       -0.11867        0.45960
N          0.80357       -1.75771        1.47661
H         -0.16457       -1.49914        1.13402
C          0.78612       -2.84481        2.46982
H          0.34207       -3.73258        2.01984
H          1.80304       -3.06724        2.79380
H          0.18448       -2.53910        3.32559
H          1.37685       -1.95178        0.63519
H         -0.40484        3.79854        0.68441
H         -1.40295        3.69270       -0.79253
H         -2.72791        3.60494        1.38018
H         -3.00890        2.23842        0.29252
H         -2.33179        1.96182        2.86721
H         -1.92674        0.84161        1.73450
H          0.49878        2.13393       -0.92487
H          0.07716        1.49297        0.50977
C         -1.07590        3.16133        0.10400
C         -2.26781        2.71112        0.94949
N         -0.31373        1.96450       -0.31665
N         -1.81220        1.81617        2.01172
