34
2msa1a1eda_107.log	Energy: -988704.4808707
S         -1.42304       -1.75402       -0.20085
O         -1.15379       -2.00624       -1.61236
O         -2.38281       -0.65142        0.08204
O         -0.15823       -1.53194        0.60983
C         -2.15097       -3.22334        0.49975
H         -3.09164       -3.40710       -0.01995
H         -1.45726       -4.04969        0.34392
H         -2.32500       -3.05466        1.56230
S          2.55731        0.19675       -0.28951
O          3.00735        0.47669        1.07126
O          1.54773        1.11399       -0.83813
O          2.08665       -1.28283       -0.43640
H          1.12437       -1.43000       -0.04832
C          3.95807        0.18413       -1.37727
H          4.39823        1.18083       -1.33970
H          4.66314       -0.56371       -1.01537
H          3.60971       -0.05318       -2.38187
N          0.51775        0.45793        2.90615
H          0.42749        0.52151        3.91396
H          1.50284        0.55295        2.66110
H          0.24058       -0.47834        2.61249
H         -2.13773        3.06848        1.29055
H         -0.60111        3.62391        0.57438
H         -2.36759        4.02216       -1.02356
H         -1.36092        2.70894       -1.64184
H         -3.87027        2.38504       -1.69234
H         -3.11448        1.17274       -0.89383
H         -0.39907        1.37963        1.65648
H         -1.50657        0.78399        0.55289
C         -1.40825        2.89129        0.49749
C         -2.09317        2.97526       -0.86110
N         -0.81681        1.54946        0.70404
N         -3.30815        2.17241       -0.87720
H         -0.04200        1.38410        0.04048
