44
2msa2tma_63.log	Energy: -1052598.4004753
S         -2.38829        0.57977       -1.11321
O         -1.67682        1.68480       -1.75381
O         -3.38242        0.94997       -0.08779
O         -1.42844       -0.44884       -0.51848
C         -3.25123       -0.31871       -2.39265
H         -3.75201       -1.17478       -1.94052
H         -3.97619        0.36122       -2.84109
H         -2.52113       -0.64339       -3.13474
S          1.53066       -1.98249       -0.50077
O          1.64667       -3.42909       -0.51114
O          1.12930       -1.34255        0.76270
O          0.55138       -1.50292       -1.63339
H         -0.27485       -1.03033       -1.23297
C          3.06604       -1.26973       -1.03250
H          3.83381       -1.62915       -0.34558
H          3.26459       -1.62537       -2.04384
H          2.98173       -0.17719       -0.98976
N          2.61208        1.92494       -0.20153
C          3.34198        3.10494       -0.62867
H          4.41172        2.97123       -0.44022
H          3.19840        3.25857       -1.70177
H          3.00859        4.02081       -0.10351
C          1.19613        2.02996       -0.51798
H          1.04723        2.15881       -1.59168
H          0.68059        1.11171       -0.22726
H          0.70994        2.88247       -0.00577
C          2.81317        1.65601        1.20941
H          2.31740        0.71495        1.46868
H          3.88151        1.54966        1.42294
H          2.41487        2.46452        1.85606
N         -1.13209       -0.21407        2.23900
C         -0.15266       -0.77177        3.20319
H         -0.04603       -1.83991        3.02284
H          0.81239       -0.29399        3.04591
H         -0.51791       -0.57993        4.21460
C         -1.20252        1.26973        2.32634
H         -0.21644        1.67692        2.10027
H         -1.93459        1.62382        1.59907
H         -1.50275        1.54447        3.33992
C         -2.47554       -0.83278        2.40506
H         -3.14092       -0.40741        1.65212
H         -2.37607       -1.90860        2.25947
H         -2.83647       -0.61833        3.41337
H         -0.83473       -0.44013        1.26683
