32
2msa2ma_88.log	Energy: -953959.4506922
S          2.83197       -1.01711       -0.00543
O          2.08941       -2.23411       -0.34480
O          2.34946       -0.34703        1.24764
O          2.91152       -0.02072       -1.12233
H          2.11368        1.47517       -0.65701
C          4.51769       -1.50701        0.32558
H          4.50493       -2.22508        1.14582
H          4.91765       -1.96644       -0.57870
H          5.09462       -0.62223        0.59556
S         -1.87212        0.52862       -0.31753
O         -1.10228        1.77950       -0.31591
O         -2.83333        0.33476       -1.40144
O         -2.61591        0.40734        1.05189
H         -3.64922        0.09764        0.89532
C         -0.71983       -0.81891       -0.28871
H         -0.11832       -0.77801       -1.19787
H         -0.07590       -0.72394        0.58733
H         -1.27627       -1.75509       -0.25108
N          1.64483        2.00187        0.11502
H          0.62386        2.00253       -0.05803
C          2.19505        3.35169        0.32673
H          1.71799        3.80822        1.19388
H          3.26910        3.27492        0.49577
H          2.00586        3.96181       -0.55631
H          1.83331        1.34067        0.89753
N         -4.98136       -0.35125        0.55541
H         -5.68419       -0.14539        1.25910
C         -4.94540       -1.78789        0.23577
H         -5.90920       -2.16869       -0.11514
H         -4.19884       -1.94363       -0.54526
H         -4.64340       -2.34357        1.12563
H         -5.20360        0.18750       -0.27884
