29
2msa1a1ma_32.log	Energy: -929307.4333151
S         -2.30314       -0.59989        0.07198
O         -2.35457        0.57616        0.95943
O         -2.13489       -1.89898        0.69692
O         -1.23357       -0.34405       -1.03705
H         -0.28873       -0.82559       -0.90126
C         -3.79363       -0.58058       -0.89562
H         -4.62497       -0.70536       -0.20116
H         -3.86123        0.37661       -1.41174
H         -3.75080       -1.40781       -1.60345
S          2.10518       -0.73179       -0.09633
O          2.55903        0.51086       -0.74631
O          0.97277       -1.39417       -0.82989
O          1.80461       -0.56686        1.35081
H          0.74284        0.65848        1.86911
C          3.43049       -1.91387       -0.20312
H          3.64711       -2.08034       -1.25812
H          4.29516       -1.49124        0.30867
H          3.10373       -2.83531        0.27810
N          0.10177        1.48077        1.96607
H         -0.85993        1.17637        1.72911
H          0.43415        2.20015        1.23448
H          0.13687        1.85427        2.90934
N          1.00610        2.96407       -0.15976
H          1.46094        3.86834       -0.08568
C         -0.06604        3.00264       -1.16456
H          0.28700        3.29840       -2.15932
H         -0.51293        2.00848       -1.24178
H         -0.84379        3.70212       -0.84564
H          1.71494        2.28267       -0.44670
