35
2msa1a1tma_89.log	Energy: -978609.5514359
S         -2.82914       -0.75285        0.23467
O         -3.79203       -1.71563        0.72242
O         -1.89983       -1.11934       -0.82915
O         -1.98308       -0.27067        1.50112
H         -1.13936        0.15878        1.20428
C         -3.67641        0.73386       -0.25548
H         -4.30096        0.47530       -1.11169
H         -4.29034        1.06589        0.58149
H         -2.93139        1.48261       -0.53199
S          0.39197        1.56545       -0.62357
O         -0.75074        2.36860       -1.02328
O          0.29078        0.88759        0.69197
O          1.69635        2.43766       -0.58804
H          2.11709        2.45757        0.37091
C          0.75105        0.36751       -1.87226
H         -0.14508       -0.24964       -1.96244
H          0.96077        0.90867       -2.79529
H          1.60365       -0.23272       -1.53309
N          2.63773        2.41303        1.83029
H          2.71898        3.31780        2.28345
H          3.51733        1.91926        1.94499
H          1.91076        1.87957        2.30249
N          2.57362       -1.79848       -0.20954
C          3.55136       -2.71410       -0.77132
H          3.16236       -3.14762       -1.69710
H          4.47509       -2.17633       -1.00639
H          3.79977       -3.54248       -0.08079
C          3.07738       -1.16160        0.99393
H          3.99857       -0.61436        0.76432
H          2.32720       -0.45658        1.36365
H          3.30081       -1.89005        1.79699
C          1.30494       -2.46699        0.04784
H          0.57204       -1.74376        0.41266
H          0.91445       -2.89561       -0.87918
H          1.40216       -3.27762        0.79319
