26
2msa2a_76.log	Energy: -904632.0065340
S         -1.82915       -0.67392        0.09518
O         -1.19346       -0.99807        1.35934
O         -1.60891        0.69172       -0.42924
O         -3.38038       -0.89829        0.16896
H         -3.89270        0.01986        0.15367
C         -1.33432       -1.85173       -1.13146
H         -0.25764       -1.71891       -1.25681
H         -1.57593       -2.84643       -0.75691
H         -1.86942       -1.63308       -2.05497
S          1.96753        0.71213       -0.16111
O          3.21276        1.37264       -0.49902
O          1.52303       -0.43170       -0.95542
O          0.83336        1.83742       -0.21649
H         -0.05869        1.42054       -0.31790
C          1.99202        0.23365        1.54863
H          2.79021       -0.51026        1.63100
H          2.21277        1.12092        2.14206
H          1.01772       -0.19001        1.79908
N          4.51957       -1.44314        0.20514
H          3.94827       -1.87835       -0.51231
H          5.36068       -1.99768        0.31726
H          4.78448       -0.52628       -0.14399
N         -4.50704        1.43142        0.07768
H         -4.83428        1.79027        0.96932
H         -5.25223        1.54488       -0.60221
H         -3.71234        1.99406       -0.22010
