35
2msa1a1tma_43.log	Energy: -978622.5351151
S         -0.92260        0.73948        0.41998
O         -0.30344        0.92832       -0.89858
O         -1.05306       -0.69161        0.82081
O         -2.27285        1.41235        0.52410
H         -3.31337        0.47225        0.01304
C          0.09800        1.54494        1.63277
H          1.09655        1.10272        1.57666
H          0.13371        2.60650        1.38587
H         -0.35162        1.39248        2.61405
S          3.64771        0.00678       -0.23344
O          5.09406        0.06064       -0.35060
O          3.04316        0.21145        1.08882
O          3.12918       -1.35846       -0.81245
H          2.38191       -1.78178       -0.18267
C          2.94633        1.19566       -1.35619
H          3.28532        2.18063       -1.03136
H          3.32318        0.97600       -2.35530
H          1.85726        1.11946       -1.31299
N          1.38894       -2.33880        0.79776
H          0.50422       -1.82016        0.75913
H          1.80194       -2.16228        1.70955
H          1.19443       -3.33156        0.72074
N         -4.02511       -0.25791       -0.37278
C         -4.23578       -1.24772        0.70936
H         -3.25746       -1.63269        1.00097
H         -4.69324       -0.74429        1.56184
H         -4.88849       -2.04839        0.35191
C         -5.26190        0.46768       -0.72890
H         -5.65069        0.96310        0.16134
H         -5.02477        1.21789       -1.48381
H         -6.00343       -0.23447       -1.11875
C         -3.37862       -0.87560       -1.55695
H         -3.13485       -0.09116       -2.27394
H         -2.45445       -1.35320       -1.23040
H         -4.05929       -1.60548       -2.00271
