40
2msa1dma1eda_170.log	Energy: -1038024.0699596
S         -1.78078       -1.52810       -0.52738
O         -2.33554       -1.11597        0.80144
O         -0.47837       -2.23346       -0.36234
O         -1.71727       -0.40151       -1.47687
C         -2.92308       -2.72955       -1.18524
H         -2.99443       -3.55649       -0.47875
H         -3.89051       -2.24366       -1.31247
H         -2.53478       -3.07279       -2.14443
S          2.80468        0.25468       -0.66938
O          4.02787        0.84176       -1.17374
O          1.68127        1.15582       -0.35836
O          3.14736       -0.57048        0.62261
H          2.28808       -0.84535        1.17709
C          2.19944       -0.96175       -1.81546
H          1.95766       -0.43376       -2.73883
H          2.99389       -1.68904       -1.98433
H          1.30165       -1.42980       -1.40011
N         -1.81446        3.10461        0.06295
C         -3.18490        2.60094       -0.06886
C         -1.08620        3.05768       -1.21171
H         -1.83292        4.05934        0.40723
H         -3.14445        1.54905       -0.36812
H         -3.69784        2.67192        0.89402
H         -3.76585        3.15129       -0.82286
H         -1.04242        2.01856       -1.55192
H         -1.57372        3.65723       -1.99349
H         -0.06395        3.41374       -1.06597
H          1.14888        1.33706        2.35585
H         -0.37895        1.38429        3.26431
H          0.93793       -0.60121        3.85911
H         -0.62195       -1.04308        3.14369
H          1.41657       -2.26191        2.36454
H          0.44220       -1.72189        1.18035
H         -0.97642        1.89217        0.99901
H          0.10361        0.76900        0.44069
C          0.18263        0.84675        2.49633
C          0.36062       -0.60471        2.93037
N         -0.55496        0.94075        1.21895
N          1.08074       -1.40734        1.92793
H         -1.32755        0.23854        1.16027
