34
2msa1a1eda_167.log	Energy: -988702.5019066
S          2.56026       -1.15017       -0.04907
O          2.12190       -0.62889        1.26635
O          3.83828       -1.83103       -0.08846
O          2.54002        0.03998       -1.06317
H          2.28819        0.97196       -0.59272
C          1.29633       -2.22631       -0.67439
H          1.23694       -3.07626        0.00711
H          0.34669       -1.68392       -0.72485
H          1.60829       -2.55567       -1.66597
S         -2.62542       -0.60365       -0.14894
O         -1.44465       -0.56725       -1.04182
O         -3.21411        0.73405        0.09344
O         -2.32401       -1.32639        1.13094
H         -1.14164       -0.49652        1.86831
C         -3.88038       -1.57792       -0.95841
H         -4.12256       -1.09211       -1.90376
H         -3.48043       -2.57757       -1.12827
H         -4.75402       -1.61509       -0.30768
N         -0.35769        0.14689        2.19071
H         -0.38842        0.26798        3.19863
H         -0.48668        1.06865        1.69857
H          0.55673       -0.24942        1.90041
H          1.04477        4.14982       -0.31550
H          1.47667        3.21436       -1.75493
H         -0.92037        3.13486       -1.46712
H         -0.28153        1.51578       -1.17762
H         -1.05484        3.40116        0.93043
H         -1.84320        2.04255        0.45626
H          2.89997        2.74086        0.17774
H          1.61641        2.09997        0.95845
C          1.08587        3.13533       -0.73669
C         -0.31041        2.53483       -0.77916
N          2.00460        2.28102        0.03563
N         -0.91069        2.46355        0.56283
