37
2msa1ma1eda_438.log	Energy: -1013353.7020092
S          1.15975       -1.95309        0.06933
O          1.60190       -0.97699        1.08350
O          1.11379       -1.46731       -1.30330
O         -0.20049       -2.58343        0.49615
H         -0.95203       -1.84182        0.61228
C          2.21746       -3.37259        0.16814
H          3.22084       -3.03786       -0.09691
H          2.18987       -3.75575        1.18758
H          1.85564       -4.11374       -0.54395
S         -2.57369        0.04788       -0.19713
O         -4.01328        0.08478        0.00305
O         -1.85530       -0.79810        0.84818
O         -1.90080        1.37831       -0.25730
H         -0.66660        1.46685        0.94925
C         -2.24177       -0.75050       -1.75728
H         -2.70196       -1.73903       -1.73435
H         -2.69798       -0.13914       -2.53642
H         -1.16241       -0.82588       -1.90246
N         -0.10201        1.18383        1.78458
H         -0.72126        0.55748        2.30322
C          0.37394        2.34234        2.56652
H          1.05256        2.00345        3.34929
H          0.87712        3.01399        1.87115
H         -0.48441        2.84813        3.00832
H          0.66409        0.58298        1.44135
H          3.11086        2.85420       -1.71207
H          3.04813        1.13401       -2.05939
H          0.91704        2.12745       -2.61191
H          0.71071        1.01319       -1.26223
H          0.86619        3.93009       -0.99073
H         -0.45097        2.98563       -0.78238
H          2.80502        2.31064        0.61118
H          2.84536        0.70702        0.27135
C          2.66681        1.90503       -1.38201
C          1.14755        1.97600       -1.54526
N          3.16168        1.62072       -0.04139
N          0.56132        3.00998       -0.68468
