41
2msa1dma1tma_18.log	Energy: -1027954.7194987
S         -2.19692       -1.32007        0.42133
O         -1.19562       -1.81896        1.38140
O         -1.76126       -1.38301       -0.99577
O         -2.71526        0.04699        0.76714
H         -2.15979        1.15904       -0.28763
C         -3.61782       -2.39531        0.56738
H         -3.29888       -3.41214        0.33659
H         -3.98885       -2.33279        1.59066
H         -4.37776       -2.06085       -0.13906
S          1.53165        1.49908        0.75850
O          0.87946        1.06962       -0.52821
O          1.72286        2.94392        0.86852
O          2.77274        0.67740        0.95112
H          2.66557       -0.58636        0.02190
C          0.42603        0.99206        2.06411
H          0.20726       -0.07297        1.96259
H          0.91391        1.21484        3.01355
H         -0.50648        1.55163        1.97704
N         -1.66533        1.79112       -0.97638
C         -1.79834        3.20380       -0.57590
C         -2.14485        1.48625       -2.33771
H         -0.65580        1.51159       -0.88344
H         -2.85368        3.48183       -0.56310
H         -1.36764        3.33291        0.41742
H         -1.25086        3.83419       -1.27848
H         -3.19666        1.76697       -2.42237
H         -1.55292        2.04679       -3.06412
H         -2.03535        0.41190       -2.49016
N          2.67192       -1.44903       -0.60886
C          2.88835       -0.95315       -1.98733
H          2.10072       -0.23215       -2.20501
H          3.85828       -0.45653       -2.03635
H          2.85708       -1.79348       -2.68524
C          3.78487       -2.29943       -0.13551
H          4.71298       -1.72796       -0.17575
H          3.58567       -2.59264        0.89556
H          3.86053       -3.18762       -0.76738
C          1.35492       -2.12543       -0.47053
H          1.15304       -2.31664        0.58349
H          0.56860       -1.47466       -0.85176
H          1.37672       -3.06405       -1.03016
