34
2msa1a1eda_272.log	Energy: -988694.3756590
S          2.44232       -0.71008       -0.15922
O          2.71065        0.50768       -0.92767
O          1.16400       -1.39610       -0.55285
O          2.50121       -0.50497        1.32261
H          1.28763        0.32337        1.98420
C          3.71872       -1.89337       -0.53277
H          3.68545       -2.08941       -1.60455
H          4.67447       -1.45179       -0.25028
H          3.52421       -2.80338        0.03412
S         -2.35427       -1.23653       -0.10163
O         -2.96681       -2.52471        0.15393
O         -2.16466       -0.79297       -1.47634
O         -0.96903       -1.13464        0.67953
H         -0.10082       -1.28737        0.10223
C         -3.26254        0.01983        0.77799
H         -4.27599        0.01156        0.37424
H         -3.28247       -0.23622        1.83785
H         -2.78811        0.98555        0.58738
N          0.36881        0.73647        2.32187
H          0.36701        0.81500        3.33443
H         -0.35268        0.07426        2.00843
H          0.18901        1.68684        1.85195
H          0.53105        3.95918       -0.89339
H          1.59017        2.69841       -0.22591
H          0.36421        1.84851       -2.16360
H         -0.05306        0.96155       -0.71996
H         -1.74257        2.99496       -1.96714
H         -2.05462        1.41221       -1.69874
H          0.18427        3.94901        1.43199
H         -1.11655        3.19712        0.77144
C          0.54723        2.99569       -0.36388
C         -0.15429        1.93657       -1.20154
N         -0.11632        3.10567        0.95239
N         -1.58634        2.23068       -1.31622
