44
2msa2tma_21.log	Energy: -1052602.7345954
S          1.85855        2.08572        0.18051
O          2.81853        1.52574        1.13694
O          0.63143        2.66922        0.74893
O          1.48993        1.06899       -0.89721
C          2.69869        3.38419       -0.71050
H          2.97902        4.15091        0.01215
H          3.58525        2.95864       -1.18092
H          2.01736        3.78918       -1.45872
S          2.46126       -2.13194       -0.02778
O          2.84576       -3.45383       -0.47853
O          1.06964       -1.89683        0.36924
O          2.83523       -1.11430       -1.18078
H          2.35192       -0.23315       -1.05690
C          3.50510       -1.62901        1.31950
H          3.26240       -2.26961        2.16827
H          4.54053       -1.77353        1.01101
H          3.29906       -0.57738        1.53444
N         -4.69693       -0.32310        0.15315
C         -5.16941        0.70848        1.06378
H         -4.60956        0.66356        2.00289
H         -5.01304        1.69706        0.62086
H         -6.24433        0.60294        1.29876
C         -5.38912       -0.24898       -1.12365
H         -5.23660        0.73664       -1.57476
H         -4.99040       -1.00312       -1.80951
H         -6.47737       -0.41620       -1.02499
C         -4.83206       -1.64519        0.74561
H         -4.43278       -2.40238        0.06384
H         -4.26502       -1.69538        1.68009
H         -5.88418       -1.90207        0.96682
N         -1.08555        0.24580       -0.39958
C         -1.81201        1.44902       -0.87850
H         -1.43478        2.31047       -0.32718
H         -1.61001        1.57749       -1.94276
H         -2.87754        1.28775       -0.70581
C         -1.46457       -0.96470       -1.17064
H         -1.25208       -0.78593       -2.22573
H         -0.86661       -1.80106       -0.81093
H         -2.53167       -1.13634       -1.01939
C         -1.27905        0.05294        1.06318
H         -0.68588       -0.80665        1.37179
H         -0.92261        0.95243        1.56591
H         -2.34353       -0.10988        1.23842
H         -0.06665        0.43368       -0.55758
