25
2msa1ma_02.log	Energy: -893813.5284417
S          1.89417       -0.68591        0.09131
O          1.04267       -0.31737       -1.09963
O          1.20932       -1.59285        1.01629
O          2.43223        0.55984        0.71115
C          3.29853       -1.55392       -0.57668
H          2.93240       -2.45492       -1.06898
H          3.80614       -0.90093       -1.28618
H          3.95734       -1.81025        0.25332
S         -2.27858       -0.29005       -0.05587
O         -3.66979       -0.25102       -0.44735
O         -1.65923        0.96622        0.41001
O         -1.45013       -0.84492       -1.27411
H         -0.44717       -0.68821       -1.17440
C         -2.03319       -1.50426        1.21551
H         -2.55837       -1.14965        2.10306
H         -2.46163       -2.44164        0.86058
H         -0.95891       -1.59967        1.39503
N          0.62013        2.33407       -0.21037
H          1.39319        1.78512        0.25102
H          0.78057        2.23482       -1.21213
C          0.53950        3.74049        0.23116
H         -0.28831        4.23642       -0.27535
H          0.36620        3.75461        1.30654
H          1.47676        4.24909        0.00620
H         -0.25818        1.80906       -0.00400
