43
2msa1eda1tma_201.log	Energy: -1062673.9502968
S          2.72637       -1.65299       -0.14156
O          3.61782       -2.75054       -0.50966
O          2.62539       -0.54079       -1.11443
O          3.00411       -1.11168        1.24681
H          3.14911        0.32882        1.40764
C          1.07827       -2.34211        0.00295
H          0.82340       -2.79603       -0.95637
H          1.09782       -3.10234        0.78482
H          0.38703       -1.53252        0.24887
S         -1.44639        0.86921       -1.11915
O         -1.00874        0.43408        0.24110
O         -1.24432        2.29298       -1.38608
O         -2.87109        0.41004       -1.34994
H         -3.42929       -0.22163       -0.14075
C         -0.47952       -0.05729       -2.29694
H          0.58329        0.09058       -2.08949
H         -0.72948       -1.11296       -2.18804
H         -0.74194        0.29645       -3.29426
H          3.64311        3.20426        0.58358
H          3.78917        1.71613       -0.40787
H          1.61763        3.00958       -0.84820
H          1.44096        1.32274       -0.36950
H          0.71108        3.63669        1.18167
H          0.05915        2.13703        1.10492
H          4.13932        1.53119        2.13291
H          2.46517        1.72579        2.17188
C          3.21590        2.21919        0.37222
C          1.74001        2.30990       -0.01582
N          3.27488        1.40545        1.61404
N          0.93682        2.64901        1.16107
N         -3.84397       -0.69092        0.75757
C         -3.74028        0.31171        1.84337
H         -2.68773        0.57250        1.95592
H         -4.30292        1.20011        1.55344
H         -4.14585       -0.10731        2.76818
C         -5.24721       -1.03954        0.45206
H         -5.78462       -0.13037        0.18031
H         -5.26409       -1.73133       -0.39081
H         -5.71343       -1.50363        1.32512
C         -3.01665       -1.88621        1.04226
H         -3.07650       -2.56635        0.19135
H         -1.98553       -1.55637        1.17109
H         -3.38717       -2.38203        1.94333
