38
2msa2dma_71.log	Energy: -1003285.9071694
S          2.05520       -1.21435        0.19891
O          1.16175       -2.26717       -0.53098
O          2.17361       -1.49965        1.61964
O          1.64045        0.14353       -0.17294
C          3.62342       -1.55340       -0.57259
H          3.87907       -2.59492       -0.37793
H          3.53155       -1.36744       -1.64223
H          4.35866       -0.88732       -0.12000
S         -2.06728       -1.02266       -0.24620
O         -2.76521        0.19971       -0.67330
O         -1.40461       -0.89605        1.08095
O         -1.10417       -1.53913       -1.27555
H          0.21163       -1.92315       -0.80312
C         -3.29473       -2.30291       -0.06500
H         -4.02221       -1.97324        0.67685
H         -3.77217       -2.45111       -1.03383
H         -2.79256       -3.21322        0.26262
N         -0.42599        1.63529        1.33907
C         -1.71651        2.26207        1.68668
C          0.64226        1.83853        2.33486
H         -0.60305        0.61389        1.21212
H         -1.58577        3.34431        1.75664
H         -2.43417        2.00573        0.90544
H         -2.06582        1.86700        2.64214
H          0.81948        2.90904        2.46099
H          0.33814        1.39909        3.28629
H          1.54203        1.34233        1.97473
H         -0.12575        2.02491        0.39600
N          0.14884        2.83898       -1.13537
C         -0.30150        1.88471       -2.15768
C          1.56359        3.18533       -1.27753
H         -0.40809        3.68513       -1.21375
H          0.23293        0.94279       -2.01762
H         -1.36459        1.67654       -2.02310
H         -0.11925        2.25524       -3.17734
H          2.15753        2.28426       -1.10764
H          1.80204        3.58479       -2.27479
H          1.84008        3.93159       -0.52679
