32
2msa1a1dma_102.log	Energy: -953957.3611045
S          1.22110       -1.82453        0.07063
O          2.20978       -2.86222        0.25211
O          1.30618       -0.64684        0.96553
O         -0.20364       -2.47154        0.23572
H         -0.93312       -1.77314        0.36308
C          1.24708       -1.22254       -1.59816
H          2.14128       -0.60366       -1.70533
H          1.27297       -2.08999       -2.25783
H          0.34450       -0.62766       -1.76082
S         -2.32302        0.42067       -0.26526
O         -2.00304       -0.70103        0.68685
O         -1.62174        0.29929       -1.54631
O         -2.11297        1.72677        0.43291
H         -1.02247        1.46614        1.57748
C         -4.07019        0.31126       -0.58630
H         -4.60185        0.38628        0.36190
H         -4.33953        1.13332       -1.24970
H         -4.26176       -0.64870       -1.06594
N         -0.34340        1.05377        2.28972
H          0.28302        0.38627        1.78185
H         -0.88785        0.52151        2.96502
H          0.20322        1.77223        2.75637
N          2.68335        1.65961       -0.49097
C          1.40911        2.35296       -0.53788
C          3.80016        2.54069       -0.20173
H          2.63295        0.91656        0.19846
H          1.41095        3.07767       -1.35846
H          0.59622        1.64769       -0.72846
H          1.17675        2.91652        0.38848
H          3.91852        3.26334       -1.01641
H          3.67984        3.11435        0.73619
H          4.72373        1.95990       -0.13309
