41
2msa1dma1tma_52.log	Energy: -1027943.2559298
S          3.03588        0.19472        0.33369
O          2.85073       -0.98120       -0.56553
O          2.08514        0.19872        1.46719
O          3.01873        1.48458       -0.41493
H          1.40610        1.92221       -0.60263
C          4.67843        0.03534        1.00189
H          4.72850       -0.90814        1.54555
H          5.38524        0.04020        0.17225
H          4.85667        0.87835        1.66944
S         -0.55077       -1.82171       -0.46130
O         -1.59408       -2.76626       -0.80282
O         -0.49163       -0.57435       -1.24703
O          0.83009       -2.55809       -0.56626
H          1.62048       -1.91118       -0.56351
C         -0.68303       -1.36949        1.25080
H         -1.54657       -0.70127        1.32561
H         -0.82986       -2.28484        1.82434
H          0.24128       -0.86223        1.54051
N          0.35761        1.94183       -0.68142
C         -0.05879        2.77927       -1.82255
C         -0.23672        2.31335        0.62270
H          0.09175        0.95396       -0.88108
H          0.23441        3.81403       -1.63953
H          0.43199        2.40901       -2.72252
H         -1.14082        2.71327       -1.94381
H         -0.10256        3.38345        0.78882
H         -1.29671        2.04966        0.61967
H          0.28755        1.74772        1.39432
N         -3.52346        0.51088        0.54712
C         -4.14223       -0.79715        0.72556
H         -3.64390       -1.53701        0.09326
H         -4.04329       -1.11332        1.76895
H         -5.21800       -0.78583        0.47050
C         -4.15893        1.50427        1.39616
H         -4.07101        1.20757        2.44551
H         -3.66501        2.47421        1.27417
H         -5.23236        1.63780        1.16388
C         -3.56352        0.90825       -0.85154
H         -3.10323        1.89637       -0.96547
H         -2.99867        0.19448       -1.45639
H         -4.59584        0.97426       -1.24303
