42
2msa2eda_99.log	Energy: -1072769.1960026
S         -2.56378       -1.17460        0.32570
O         -1.88051       -2.25218       -0.44238
O         -3.52017       -0.37639       -0.45588
O         -1.55204       -0.33680        1.05044
C         -3.50198       -1.99670        1.60304
H         -4.23554       -2.64051        1.11698
H         -2.81902       -2.58606        2.21501
H         -3.99841       -1.23512        2.20471
S          2.36664        1.12789        0.69522
O          1.78721        2.42037        1.14006
O          1.73145        0.67342       -0.59435
O          2.34022        0.05968        1.71067
C          4.07550        1.44606        0.30313
H          4.50962        0.51636       -0.06832
H          4.11503        2.22613       -0.45721
H          4.57496        1.77136        1.21593
H         -0.64092        3.67259       -1.10790
H          0.04963        2.07367       -1.47565
H         -2.16338        2.65422       -2.70688
H         -2.15298        1.11238       -1.84945
H         -3.87066        3.25965       -1.34203
H         -3.79347        1.78289       -0.61123
H          0.04704        2.44969        0.84936
H         -1.64823        2.75419        0.80914
C         -0.80953        2.59393       -1.04940
C         -2.12792        2.19752       -1.71220
N         -0.86601        2.24414        0.39232
N         -3.25721        2.60568       -0.87458
H         -1.07825        1.23032        0.54417
H          2.67596       -2.53251        0.62457
H          1.42194       -3.76791        0.32082
H          2.81526       -3.80784       -1.59931
H          1.36584       -2.93511       -2.10001
H          3.48917       -1.84846       -2.74891
H          2.70117       -0.86162       -1.69814
H          0.65622       -1.54364        1.18190
H          1.03567       -0.87409       -0.23463
C          1.82849       -2.80836       -0.00632
C          2.26516       -2.87153       -1.46393
N          0.76997       -1.78642        0.19543
N          3.15864       -1.76653       -1.79446
H         -0.16775       -2.07148       -0.16295
