35
2msa1ma1dma_309.log	Energy: -978613.7265450
S         -1.33588       -1.26576        0.62897
O         -1.58252        0.11497        1.07392
O         -0.43277       -2.06351        1.44694
O         -0.87139       -1.26016       -0.87126
H          0.06793       -0.82468       -1.00668
C         -2.89802       -2.08386        0.44730
H         -3.31135       -2.19263        1.45094
H         -3.53790       -1.44782       -0.17186
H         -2.72038       -3.05945       -0.00440
S          2.59668       -0.30830       -0.50349
O          3.78541        0.00700       -1.28407
O          1.32005       -0.16201       -1.29458
O          2.46645        0.47755        0.77075
H          1.46087        1.61628        0.70225
C          2.67460       -2.01370        0.00375
H          2.71677       -2.62543       -0.89814
H          3.58320       -2.13984        0.59294
H          1.78821       -2.24321        0.59844
N         -3.96217        0.82170       -0.80229
H         -4.79812        1.39234       -0.74945
C         -3.18464        1.13125       -1.99992
H         -2.86791        2.18317       -2.08391
H         -2.29123        0.50112       -2.01525
H         -3.77169        0.88688       -2.88969
H         -3.41048        0.98768        0.03470
N          0.86324        2.51707        0.72896
C          0.20781        2.60530        2.05599
C         -0.07846        2.54717       -0.41812
H          1.54216        3.27110        0.62898
H         -0.46416        1.75173        2.14954
H          0.97738        2.56019        2.82676
H         -0.34872        3.54172        2.13014
H         -0.81856        1.76328       -0.26015
H         -0.56228        3.52501       -0.46485
H          0.47664        2.33838       -1.33227
