35
2msa1a1tma_55.log	Energy: -978618.6050547
S          1.16742       -2.06151       -0.27835
O          1.34293       -3.48141       -0.50105
O          0.59689       -1.63586        1.01666
O          0.28111       -1.49802       -1.44432
H         -0.22335       -0.63675       -1.22758
C          2.71144       -1.21575       -0.46495
H          3.38067       -1.59982        0.30651
H          3.09612       -1.45417       -1.45707
H          2.53903       -0.13506       -0.34057
S         -2.29322        0.64797       -0.24069
O         -1.02789        0.65590       -1.03626
O         -2.07846        1.06916        1.16764
O         -3.00727       -0.65279       -0.33078
H         -2.52604       -1.61832        1.14832
C         -3.33358        1.87433       -1.00140
H         -2.82339        2.83561       -0.93893
H         -3.49324        1.58621       -2.04036
H         -4.27717        1.90145       -0.45654
N         -1.91678       -1.55095        1.98879
H         -2.21993       -2.14171        2.75620
H         -1.95099       -0.54061        2.20942
H         -0.93760       -1.75928        1.68249
N          2.26604        1.92951        0.17515
C          1.40979        1.85618        1.34980
H          0.42203        1.48496        1.06902
H          1.84340        1.16338        2.07857
H          1.28638        2.84225        1.83681
C          3.59288        2.40725        0.51745
H          4.04573        1.74337        1.26135
H          4.23027        2.41071       -0.37260
H          3.57909        3.43175        0.93611
C          1.65899        2.73803       -0.87060
H          2.29304        2.72457       -1.76305
H          0.68319        2.32013       -1.12882
H          1.52527        3.79192       -0.55919
