26
2msa2a_83.log	Energy: -904631.2940911
S          2.05657       -0.55626       -0.25375
O          1.29062       -1.50053        0.56090
O          3.51138       -0.63306       -0.18698
O          1.60107        0.90588        0.12621
H          2.42781        1.49232        0.39283
C          1.51425       -0.71197       -1.93436
H          2.04308        0.02741       -2.53534
H          1.76572       -1.72451       -2.25284
H          0.43381       -0.55375       -1.94643
S         -2.10339       -0.43568        0.30517
O         -3.52275       -0.69932        0.42709
O         -1.51233       -0.29247       -1.02408
O         -1.36054       -1.61905        1.07473
H         -0.39444       -1.61321        0.86315
C         -1.67849        1.00388        1.25598
H         -2.20874        1.83532        0.78190
H         -2.01643        0.84465        2.27989
H         -0.59686        1.13775        1.20020
N         -3.75420        2.12647       -1.06885
H         -4.30343        2.85561       -1.50966
H         -4.39049        1.41122       -0.72816
H         -3.17845        1.68931       -1.78229
N          3.73898        2.21909        0.78854
H          3.98841        3.02527        0.22449
H          4.43225        1.48932        0.63351
H          3.77934        2.49238        1.76551
