35
2msa1a1tma_08.log	Energy: -978636.0372865
S         -2.49653       -0.50621       -0.08831
O         -3.15580        0.72754        0.37970
O         -2.55808       -1.63430        0.89248
O         -1.09734       -0.28447       -0.54327
C         -3.41080       -1.06240       -1.51747
H         -4.43742       -1.25970       -1.20795
H         -3.38176       -0.27234       -2.26819
H         -2.93965       -1.96852       -1.89857
S          2.34613       -0.67494       -0.29938
O          1.81211       -0.26307        1.04723
O          2.02361        0.32022       -1.33696
O          1.97935       -2.07422       -0.62450
C          4.12579       -0.66897       -0.12896
H          4.44404        0.34009        0.13561
H          4.40489       -1.37817        0.65033
H          4.55469       -0.96429       -1.08695
N          0.00993       -2.36394        1.26177
H         -1.01782       -2.15052        1.14200
H          0.16687       -3.11074        1.93107
H          0.46184       -2.58307        0.35631
H          0.52304       -1.50479        1.53494
N          0.13160        2.14929        0.16901
C          1.47054        2.78801        0.15139
H          2.11088        2.24652        0.84639
H          1.88473        2.70477       -0.85135
H          1.35710        3.83188        0.45295
C         -0.79796        2.79579       -0.79314
H         -0.39312        2.66249       -1.79643
H         -1.77099        2.31240       -0.70713
H         -0.87332        3.85775       -0.54852
C         -0.43068        2.11661        1.54458
H         -1.42466        1.66919        1.50198
H          0.23920        1.51736        2.16129
H         -0.48951        3.14028        1.92167
H          0.22429        1.16243       -0.13775
