32
2msa1a1dma_11.log	Energy: -953972.4454721
S         -2.52733       -0.42026        0.01651
O         -3.29400        0.71729       -0.46477
O         -2.31026       -0.57438        1.45190
O         -1.14651       -0.37155       -0.73700
C         -3.26373       -1.92373       -0.58854
H         -2.61375       -2.75576       -0.31599
H         -4.23810       -2.02455       -0.10932
H         -3.37003       -1.84119       -1.66984
S          2.07781       -0.99348       -0.07637
O          2.55914       -0.30918        1.13748
O          2.00694       -0.10450       -1.26520
O          0.76877       -1.70309        0.14296
H         -0.39179       -0.97010       -0.33336
C          3.24159       -2.28491       -0.46053
H          4.21622       -1.82178       -0.61513
H          3.27096       -2.97440        0.38319
H          2.90423       -2.79121       -1.36469
N          0.09035        1.13203        2.16532
H          0.05852        1.72400        2.98844
H          0.91597        0.53378        2.22976
H         -0.73167        0.52680        2.17980
N          0.62082        2.13302       -0.35209
C         -0.47252        2.85671       -1.02860
C          1.84637        2.92414       -0.12187
H          0.29781        1.77599        0.60861
H         -0.13783        3.18430       -2.01476
H         -1.33025        2.19077       -1.12458
H         -0.74918        3.72527       -0.42775
H          2.24580        3.27187       -1.07604
H          1.60796        3.77766        0.51589
H          2.57386        2.27603        0.36888
H          0.90265        1.28697       -0.88364
