42
2msa2eda_511.log	Energy: -1072746.4910597
S          0.29105        2.30352       -0.69691
O          0.19141        3.71437       -1.04641
O         -0.62601        1.88786        0.43049
O          1.67572        1.84386       -0.33783
H          1.71090        1.54936        1.23560
C         -0.18531        1.32773       -2.10614
H         -1.23146        1.53652       -2.33345
H          0.45321        1.62594       -2.93887
H         -0.04089        0.27421       -1.85441
S         -2.70675       -0.79528        0.10028
O         -1.74703       -1.37754        1.04012
O         -2.50724       -1.09248       -1.31344
O         -2.83760        0.75004        0.33892
H         -1.91919        1.23845        0.33386
C         -4.35115       -1.28738        0.56229
H         -4.41594       -2.36454        0.40589
H         -4.50923       -1.03666        1.61059
H         -5.05764       -0.76220       -0.07992
H          0.90441        0.06519        3.71516
H         -0.15951        0.50204        2.33477
H          0.75227       -1.89577        2.21508
H          1.07318       -0.88373        0.81412
H          3.03236       -1.94975        2.60443
H          3.20167       -1.26223        1.09214
H          1.66797        2.14220        2.82168
H          2.73281        0.89152        2.40002
C          0.84607        0.20852        2.63249
C          1.32060       -1.02729        1.87001
N          1.79281        1.29807        2.26935
N          2.77038       -1.16880        2.01733
H          2.71135       -1.84986       -2.83479
H          3.75650       -2.77002       -1.74362
H          1.55985       -3.77723       -1.72768
H          1.86008       -3.02916       -0.15633
H          0.03142       -2.05766       -2.20757
H         -0.20746       -2.18316       -0.60553
H          4.03352       -0.43816       -1.32553
H          2.44916       -0.23216       -1.01635
C          2.89762       -2.08967       -1.77465
C          1.67580       -2.81086       -1.21412
N          3.20971       -0.90995       -0.96818
N          0.49081       -1.96221       -1.30811
