37
2msa1ma1eda_446.log	Energy: -1013351.3522310
S         -2.39019       -0.77683        0.05821
O         -2.64045        0.52171        0.69275
O         -1.42578       -1.64260        0.73125
O         -2.00159       -0.58339       -1.44618
H         -1.07875       -0.09300       -1.51836
C         -3.93755       -1.62179       -0.13748
H         -4.33540       -1.79213        0.86321
H         -4.60419       -0.98440       -0.71737
H         -3.75136       -2.56695       -0.64660
S          1.51433        0.00046       -1.19134
O          2.58907        0.51774       -2.02510
O          0.16912        0.62840       -1.50886
O          1.76397        0.13364        0.28247
H          0.57515        0.81262        1.11570
C          1.31710       -1.74254       -1.49470
H          1.18394       -1.88420       -2.56757
H          2.21611       -2.24279       -1.12581
H          0.44563       -2.09021       -0.93656
N          3.16603       -2.41720        1.15737
H          4.03343       -2.68069        1.61058
C          2.01198       -2.77156        1.97753
H          2.01460       -2.33287        2.98857
H          1.09909       -2.43842        1.47610
H          1.95290       -3.85917        2.08374
H          3.17927       -1.41295        1.00162
H         -0.18957        3.37585        2.43208
H          1.44158        2.64439        2.39771
H          1.06238        4.43780        0.63260
H          1.57976        2.88302       -0.01772
H         -0.72106        4.22436       -0.73256
H         -0.39539        2.63645       -1.04941
H         -0.34795        0.97096        2.52272
H         -0.97301        1.51195        1.09698
C          0.50744        2.77226        1.84592
C          0.74780        3.40236        0.47166
N         -0.10269        1.43267        1.64965
N         -0.47603        3.33680       -0.31670
