35
2msa1a1tma_03.log	Energy: -978637.9929574
S          2.66624       -0.55115        0.10489
O          2.95059        0.57176        1.01561
O          1.57872       -0.23812       -0.87300
O          2.41181       -1.84936        0.79236
C          4.14661       -0.80603       -0.86298
H          4.37723        0.12223       -1.38653
H          4.95300       -1.06964       -0.17827
H          3.96533       -1.61301       -1.57319
S         -2.66626       -0.55123        0.10498
O         -2.95070        0.57133        1.01609
O         -2.41237       -1.84984        0.79190
O         -1.57829       -0.23803       -0.87233
C         -4.14633       -0.80526       -0.86358
H         -4.95319       -1.06848       -0.17927
H         -4.37619        0.12319       -1.38714
H         -3.96517       -1.61227       -1.57379
N         -0.00006       -2.54221       -0.21859
H          0.87842       -2.45357        0.34459
H          0.00025       -1.71850       -0.83844
H         -0.00005       -3.40080       -0.75979
H         -0.87876       -2.45339        0.34423
N          0.00005        2.09467       -0.09876
C          1.22728        2.76174       -0.60681
H          2.09517        2.27580       -0.16245
H          1.25419        2.66197       -1.69193
H          1.18567        3.81574       -0.32300
C         -1.22733        2.76147       -0.60680
H         -1.25432        2.66156       -1.69191
H         -2.09512        2.27547       -0.16230
H         -1.18587        3.81552       -0.32314
C          0.00003        2.01325        1.39036
H         -0.90268        1.48405        1.69918
H          0.90287        1.48429        1.69923
H         -0.00013        3.03033        1.78917
H          0.00016        1.11752       -0.44767
