32
2msa1a1dma_67.log	Energy: -953963.8212392
S         -2.33914       -0.89666       -0.28614
O         -3.69939       -1.31567        0.01535
O         -1.51219       -0.62926        0.95869
O         -2.22688        0.29021       -1.18929
H         -1.35050        1.44136       -0.49567
C         -1.50839       -2.23189       -1.12828
H         -1.54355       -3.11108       -0.48366
H         -2.04875       -2.41926       -2.05656
H         -0.47809       -1.93368       -1.33138
S          1.76498       -0.44871        0.54598
O          1.57530        0.97554        0.88065
O          1.63270       -0.78089       -0.87191
O          0.80967       -1.32960        1.41089
H         -0.20033       -1.08254        1.21918
C          3.34481       -0.96717        1.14874
H          3.41872       -0.69193        2.20024
H          3.41272       -2.04700        1.01621
H          4.08691       -0.45482        0.52781
N          4.50629        0.22166       -1.70550
H          4.59703        1.19889       -1.96096
H          3.55052       -0.06695       -1.90211
H          5.12418       -0.31133       -2.30776
N         -0.80820        2.18634        0.03053
C         -1.60851        2.58781        1.20778
C         -0.46407        3.28751       -0.88829
H          0.06263        1.72722        0.35731
H         -2.54057        3.03972        0.86531
H         -1.82548        1.68680        1.78192
H         -1.04067        3.30026        1.80856
H         -1.38226        3.72759       -1.28001
H          0.11464        4.04377       -0.35520
H          0.12601        2.88275       -1.71054
