29
2msa1a1ma_03.log	Energy: -929319.7087871
S         -2.72800       -0.17777        0.09530
O         -2.60807        1.10624        0.83338
O         -2.67981       -1.38539        0.93941
O         -1.71290       -0.24635       -1.01661
C         -4.32447       -0.14742       -0.69666
H         -4.44494       -1.07461       -1.25694
H         -5.08186       -0.06914        0.08359
H         -4.36396        0.71557       -1.36120
S          2.66316       -0.29774       -0.13321
O          2.62930        0.90220       -0.98434
O          2.55523       -1.59286       -0.83081
O          1.61236       -0.19968        0.96269
C          4.22729       -0.29654        0.72421
H          5.01389       -0.38004       -0.02629
H          4.31926        0.64063        1.27315
H          4.25103       -1.14835        1.40370
N         -0.07593       -2.15641        0.04598
H          0.48649       -1.51212        0.64500
H         -0.63349       -1.53785       -0.58743
H          0.59786       -2.71875       -0.47361
H         -0.74780       -2.69003        0.59587
N         -0.05665        1.81889        0.07260
H          0.57646        1.13974        0.55218
H         -0.22307        1.40576       -0.84944
C          0.55285        3.16113       -0.01125
H         -0.10135        3.82196       -0.57979
H          0.68219        3.55357        0.99727
H          1.52075        3.06095       -0.50174
H         -0.98901        1.78706        0.53459
