28
2msa1dma_07.log	Energy: -918472.8441619
S          2.25394       -0.72114       -0.07413
O          2.23438        0.47784        0.81803
O          3.40881       -0.81637       -0.95387
O          0.94103       -0.80243       -0.82304
C          2.26381       -2.13492        1.01548
H          3.18212       -2.09510        1.60187
H          1.38935       -2.08682        1.66549
H          2.24329       -3.03462        0.39967
S         -2.27956       -0.46619       -0.04872
O         -2.46785        0.07026       -1.38844
O         -1.93719        0.52357        0.99116
O         -1.24206       -1.63176       -0.03354
H         -0.28764       -1.30940       -0.36167
C         -3.73297       -1.33835        0.47355
H         -4.54027       -0.60700        0.51859
H         -3.94912       -2.10863       -0.26613
H         -3.54573       -1.77265        1.45497
N          0.22700        2.12660        0.18985
C          0.34787        3.36388        0.98389
C          0.22458        2.33414       -1.27671
H          1.02247        1.47309        0.43853
H         -0.47440        4.03808        0.73852
H          0.31353        3.10774        2.04279
H          1.30141        3.84204        0.75566
H         -0.62172        2.96492       -1.55236
H          1.16414        2.80744       -1.56559
H          0.13915        1.35962       -1.75680
H         -0.63231        1.61509        0.46346
