34
2msa1a1eda_177.log	Energy: -988700.5272724
S          1.97204       -1.41438       -0.31575
O          3.00038       -0.42540        0.06202
O          1.56024       -1.41279       -1.71851
O          0.77644       -1.26810        0.62633
C          2.63122       -3.02908        0.06075
H          1.87353       -3.77286       -0.18671
H          3.52154       -3.17209       -0.55218
H          2.88091       -3.06424        1.12107
S         -2.53008       -0.57510        0.16844
O         -2.49001        0.04835       -1.14784
O         -2.22368        0.29574        1.30864
O         -1.63604       -1.86445        0.21735
H         -0.62775       -1.65183        0.31864
C         -4.12083       -1.32204        0.41929
H         -4.85690       -0.51846        0.38567
H         -4.29290       -2.03729       -0.38458
H         -4.12381       -1.81219        1.39213
N          2.92803        2.21631        1.48797
H          3.20231        2.18448        2.46437
H          3.46365        2.95799        1.04985
H          3.20171        1.32961        1.05615
H          1.37255        1.83257       -1.08646
H         -0.07691        0.84360       -1.28860
H         -0.45574        3.10097       -2.20767
H         -1.54922        2.73618       -0.87527
H          0.82332        4.45658       -0.66122
H         -0.73691        4.85495       -0.37910
H          0.55141        0.46958        0.84706
H          1.08499        2.03244        1.13820
C          0.32710        1.72354       -0.78590
C         -0.50343        2.94950       -1.11989
N          0.33214        1.47255        0.68178
N         -0.06596        4.09758       -0.32923
H         -0.58957        1.63823        1.09259
