37
2msa1ma1eda_96.log	Energy: -1013363.7215721
S         -2.46602       -0.65583       -0.27280
O         -1.97006        0.28934       -1.30940
O         -2.81340       -0.01396        1.00269
O         -1.51846       -1.81417       -0.11064
C         -3.95935       -1.37893       -0.92242
H         -3.72609       -1.85729       -1.87344
H         -4.32060       -2.10927       -0.19826
H         -4.68821       -0.57963       -1.05784
S          1.82160       -1.50031        0.32299
O          1.43390       -0.39458        1.19867
O          3.16899       -1.48340       -0.23107
O          0.83725       -1.59708       -0.89465
H         -0.16081       -1.65555       -0.59525
C          1.54693       -3.01979        1.20398
H          2.18533       -3.00637        2.08781
H          0.49286       -3.05468        1.48465
H          1.80876       -3.84703        0.54469
N          2.94710        1.40353       -1.38579
H          3.11869        0.39914       -1.42313
C          3.68240        1.96901       -0.24693
H          4.76436        1.79972       -0.29599
H          3.50127        3.04667       -0.19235
H          3.30590        1.50974        0.67048
H          3.27911        1.79656       -2.26052
H          0.64364        3.63162        0.14877
H         -0.40121        3.47146       -1.28523
H         -1.67236        4.11420        0.82289
H         -2.24357        2.61232        0.08570
H         -1.19001        2.88530        2.67397
H         -1.69999        1.50398        1.91284
H          1.21652        1.58343       -0.94996
H          0.41264        1.25384        0.48155
C         -0.17630        3.06197       -0.29736
C         -1.40442        3.07193        0.61860
N          0.28742        1.66718       -0.45525
N         -1.10789        2.32769        1.83577
H         -0.44311        1.09666       -0.92745
