29
2msa1a1ma_92.log	Energy: -929296.8355524
S         -1.49166        1.05153       -0.06702
O         -0.68869        2.27836       -0.25996
O         -1.59116        0.57296        1.30412
O         -0.97952       -0.06842       -1.03254
H         -0.11657       -0.55191       -0.71563
C         -3.09775        1.32740       -0.75618
H         -3.52654        2.17535       -0.22082
H         -2.97979        1.55347       -1.81550
H         -3.67728        0.41339       -0.57990
S          2.39049       -0.68315       -0.03586
O          1.08011       -1.32900       -0.35021
O          2.44246       -0.13420        1.34364
O          2.77997        0.33397       -1.04857
H          2.40172        2.00613       -0.32342
C          3.57797       -2.00425       -0.12349
H          3.30534       -2.75144        0.62156
H          3.54024       -2.42585       -1.12780
H          4.56236       -1.58625        0.08650
N          1.93088        2.41128        0.50869
H          2.31754        3.30709        0.78800
H          2.07802        1.66915        1.22224
H          0.90956        2.47187        0.29248
N         -3.88809       -1.52509        0.62899
H         -3.24297       -1.12747        1.30685
C         -3.25337       -2.63603       -0.08167
H         -2.93858       -3.46840        0.56386
H         -3.94554       -3.02757       -0.83299
H         -2.37049       -2.26254       -0.60580
H         -4.70439       -1.84448        1.13887
