44
2msa2tma_22.log	Energy: -1052600.0517791
S          2.44478        1.14278        0.37912
O          1.53256        1.70424        1.37128
O          2.03931        1.22870       -1.02096
O          2.82163       -0.34074        0.74787
H          2.01703       -0.97741        0.62245
C          4.04337        1.89307        0.57554
H          3.91839        2.95525        0.36307
H          4.37159        1.74055        1.60322
H          4.73254        1.43441       -0.13269
S          0.21806       -2.41081       -0.76361
O          0.18312       -3.86869       -0.76426
O          0.81911       -1.83075        0.49728
O         -1.10925       -1.75792       -0.99423
H         -1.60003       -1.04506        0.37275
C          1.26620       -1.87103       -2.10009
H          2.24398       -2.33597       -1.96737
H          0.80876       -2.20810       -3.03058
H          1.34930       -0.78311       -2.06908
N         -2.04176       -0.80412        1.30557
C         -1.22054        0.24064        1.96589
H         -0.20242       -0.12942        2.06715
H         -1.22904        1.12939        1.33648
H         -1.65355        0.46173        2.94485
C         -3.41098       -0.32088        1.01170
H         -3.31619        0.61652        0.45848
H         -3.92675       -1.07302        0.41320
H         -3.94286       -0.15760        1.95236
C         -2.04058       -2.07336        2.07228
H         -2.58773       -2.82641        1.50410
H         -1.00621       -2.39625        2.19408
H         -2.51381       -1.90728        3.04288
N         -2.08460        2.27635       -0.71413
C         -1.34965        1.47796       -1.68815
H         -0.41171        1.12796       -1.25144
H         -1.93717        0.60245       -1.97888
H         -1.10362        2.05762       -2.59727
C         -3.33199        2.76509       -1.27660
H         -3.94544        1.92258       -1.61364
H         -3.89353        3.32003       -0.51795
H         -3.17042        3.43365       -2.14304
C         -1.26645        3.37792       -0.22477
H         -1.81251        3.93123        0.54637
H         -0.34234        2.98940        0.21267
H         -0.99523        4.08478       -1.03092
