32
2msa1a1dma_62.log	Energy: -953964.0301559
S         -2.19606       -0.11630       -0.36718
O         -1.36625        1.08052       -0.52696
O         -3.27485       -0.31885       -1.33022
O         -2.81233       -0.07084        1.08754
H         -3.81935       -0.30206        1.05710
C         -1.14661       -1.53878       -0.31868
H         -0.41024       -1.40511        0.47830
H         -1.77689       -2.41330       -0.15624
H         -0.62034       -1.60488       -1.27234
S          2.51974       -1.00459       -0.03681
O          1.98353       -1.92103       -1.05058
O          1.58713       -0.72485        1.08862
O          3.03652        0.28797       -0.61033
H          1.94901        1.38872       -0.27243
C          3.95538       -1.79356        0.67677
H          3.63335       -2.73356        1.12570
H          4.67541       -1.97704       -0.12108
H          4.37676       -1.12993        1.43203
N         -5.36450       -0.62280        0.80894
H         -5.99754        0.11054        1.11132
H         -5.71209       -1.50710        1.16510
H         -5.37627       -0.65616       -0.20884
N          1.17776        2.07202        0.00576
C          1.18118        3.23252       -0.90380
C          1.34070        2.40543        1.43548
H          0.28904        1.55788       -0.11589
H          2.13953        3.74762       -0.82151
H          1.04339        2.87504       -1.92410
H          0.36730        3.90951       -0.63862
H          2.28933        2.92771        1.57140
H          0.51311        3.03913        1.75984
H          1.35095        1.46561        1.98794
