35
2msa1ma1dma_342.log	Energy: -978609.3106856
S         -2.97613       -0.22152        0.01248
O         -4.29549       -0.68153        0.39586
O         -2.23889       -0.92466       -1.03370
O         -2.07972       -0.19159        1.33122
H         -1.13947       -0.46542        1.14129
C         -3.06490        1.50011       -0.41785
H         -3.67179        1.56819       -1.32196
H         -3.54795        2.02487        0.40698
H         -2.04535        1.86505       -0.58919
S          1.27454       -1.45842       -0.02427
O          0.45352       -0.84290        1.04699
O          2.55003       -2.02561        0.50262
O          1.55553       -0.48141       -1.12843
H          3.16571        0.12401       -0.88528
C          0.34425       -2.79403       -0.72742
H          0.17569       -3.52703        0.06217
H         -0.60102       -2.38185       -1.08643
H          0.93198       -3.22432       -1.53808
N          3.96820        0.10642       -0.20829
H          3.81771       -0.85108        0.19241
C          3.76311        1.13544        0.84030
H          4.54178        1.04703        1.59700
H          3.78148        2.12558        0.38609
H          2.78634        0.95577        1.29158
H          4.86578        0.18445       -0.67962
N          0.17210        2.20324       -0.35158
C          0.18378        2.64842        1.02731
C          0.96166        3.02875       -1.23935
H          0.46711        1.23408       -0.42793
H         -0.31514        3.62155        1.10728
H         -0.36205        1.93478        1.64878
H          1.20027        2.76879        1.44885
H          0.51286        4.02494       -1.32774
H          2.00708        3.17434       -0.89862
H          0.98516        2.57718       -2.23429
