26
2msa2a_30.log	Energy: -904644.8771171
S          2.48009       -0.25222       -0.12343
O          3.49932        0.37395        0.69653
O          2.66669       -0.39252       -1.55572
O          1.14588        0.60641        0.13965
H          0.34858        0.28293       -0.40093
C          2.04194       -1.83570        0.56280
H          2.87154       -2.51218        0.35361
H          1.89856       -1.71394        1.63583
H          1.11746       -2.18112        0.09658
S         -1.94480       -0.73649        0.05593
O         -1.27974       -1.92910        0.58359
O         -1.08899        0.00340       -0.94487
O         -2.44546        0.20810        1.09893
H         -1.39866        1.42927        1.50031
C         -3.38133       -1.25695       -0.85981
H         -3.04891       -1.92793       -1.65190
H         -4.04403       -1.77714       -0.16794
H         -3.87004       -0.37555       -1.27430
N         -0.67307        2.19814        1.51846
H          0.25195        1.75623        1.53378
H         -0.80133        2.82214        2.30881
H         -0.75023        2.69874        0.57808
N         -0.83526        2.96562       -1.13312
H         -1.13020        2.02049       -1.39182
H          0.07996        3.11398       -1.54876
H         -1.47627        3.63124       -1.55173
