34
2msa1a1eda_88.log	Energy: -988704.7125221
S         -1.28668       -1.70205       -0.05769
O         -1.52928       -0.82309       -1.21881
O         -1.60045       -1.04303        1.23398
O          0.09064       -2.29963       -0.06258
C         -2.37396       -3.10666       -0.19492
H         -2.17602       -3.59816       -1.14743
H         -2.16877       -3.77870        0.63825
H         -3.39954       -2.73914       -0.15279
S          2.48185        0.16157       -0.29106
O          2.73086        0.01373        1.14006
O          1.51724        1.20454       -0.67267
O          2.11561       -1.19516       -0.95598
H          1.22905       -1.63136       -0.58084
C          4.01345        0.49921       -1.12109
H          4.70972       -0.30668       -0.89106
H          3.81994        0.56272       -2.19127
H          4.38105        1.44989       -0.73385
N          0.32779        0.60873        3.01403
H          1.27036        0.41996        2.67300
H         -0.21153       -0.24346        2.85876
H          0.37647        0.78134        4.01185
H         -2.29169        3.15278        1.10871
H         -0.74268        3.69940        0.41018
H         -2.59456        3.77773       -1.24891
H         -1.31646        2.66598       -1.75190
H         -3.84219        1.94870       -1.74124
H         -2.71996        0.85522       -1.25151
H         -0.46794        1.58559        1.71724
H         -1.56268        0.85883        0.73719
C         -1.51550        2.92758        0.37442
C         -2.12512        2.81622       -1.01977
N         -0.89284        1.64244        0.75360
N         -3.13244        1.76466       -1.04409
H         -0.12315        1.39915        0.10692
