35
2msa1a1tma_77.log	Energy: -978615.8033127
S          0.53920        1.32944        0.22486
O          0.78926        0.38317        1.33469
O         -0.47968        2.33953        0.47613
O          0.22198        0.52409       -1.08056
H         -0.61441       -0.08538       -0.92980
C          2.07738        2.07431       -0.22315
H          2.37980        2.69397        0.62214
H          2.80060        1.26835       -0.41104
H          1.90361        2.68800       -1.10711
S         -3.16992       -0.55335       -0.42090
O         -4.08260       -1.43227       -1.13373
O         -1.71408       -0.94515       -0.56664
O         -3.46064       -0.39920        1.04458
H         -2.24328       -0.76997        1.86952
C         -3.30580        1.08433       -1.11247
H         -3.07736        1.01947       -2.17698
H         -4.33417        1.41520       -0.96486
H         -2.60638        1.74565       -0.59760
N         -1.32391       -1.10641        2.34058
H         -0.53705       -0.50375        2.01768
H         -1.15028       -2.05457        2.01398
H         -1.39541       -1.09189        3.35399
N          3.89678       -0.64735       -0.34623
C          2.93859       -1.63512       -0.82017
H          1.99418       -1.51839       -0.28338
H          2.74197       -1.48083       -1.88451
H          3.30281       -2.67007       -0.67723
C          5.15056       -0.73959       -1.07424
H          4.97032       -0.59386       -2.14329
H          5.83848        0.04007       -0.73331
H          5.64597       -1.71975       -0.93823
C          4.10485       -0.76865        1.08782
H          4.80015        0.00527        1.42801
H          3.15180       -0.62823        1.60542
H          4.52285       -1.75354        1.37030
