29
2msa1a1ma_115.log	Energy: -929294.6599959
S         -1.32185        0.53030        0.35167
O         -2.54127        0.69080        1.13534
O         -0.06127        0.62646        1.19061
O         -1.18751        1.50175       -0.78494
H          0.12184        2.27551       -0.65837
C         -1.32563       -1.09212       -0.37525
H         -1.33918       -1.82011        0.43752
H         -2.24356       -1.16182       -0.96817
H         -0.42935       -1.20800       -0.98697
S          2.70413       -0.58283       -0.15856
O          3.05119        0.85098       -0.21693
O          2.03976       -1.12992       -1.33104
O          1.89725       -0.87624        1.14586
H          1.02483       -0.28326        1.18822
C          4.18989       -1.48937        0.18055
H          4.84475       -1.35855       -0.68127
H          4.64480       -1.08257        1.08286
H          3.92543       -2.53861        0.30911
N          1.05624        2.77242       -0.42214
H          0.96429        3.14786        0.51951
H          1.26331        3.51782       -1.08079
H          1.82150        2.06579       -0.41257
N         -4.52827       -0.55193       -0.91495
H         -4.23963        0.31565       -0.47181
C         -5.03944       -1.47585        0.09342
H         -5.94955       -1.13620        0.60979
H         -5.25017       -2.44501       -0.36962
H         -4.26712       -1.62613        0.85285
H         -5.23840       -0.33197       -1.60390
