32
2msa1a1dma_40.log	Energy: -953969.6765301
S         -2.34074       -0.73917       -0.14434
O         -3.32415       -1.43731       -0.94740
O         -2.74298        0.46813        0.57670
O         -1.10668       -0.29226       -1.04145
C         -1.61415       -1.87927        1.01532
H         -2.40227       -2.14924        1.71910
H         -1.26700       -2.75562        0.46726
H         -0.78105       -1.37763        1.51137
S          1.95511       -0.99027       -0.04824
O          1.26412       -0.20892        1.00740
O          2.96847       -0.21871       -0.78861
O          0.95831       -1.67296       -0.94788
H         -0.29276       -0.94822       -1.06394
C          2.81204       -2.33023        0.75662
H          3.54981       -1.89950        1.43397
H          2.08394       -2.92637        1.30695
H          3.29945       -2.92960       -0.01242
N          2.44897        2.67547       -0.61873
H          3.05666        3.11495        0.06566
H          2.60839        3.14326       -1.50564
H          2.76115        1.70211       -0.72201
N         -0.19642        2.19368        0.18349
C         -0.33720        2.38647        1.64201
C         -1.13290        2.99900       -0.62644
H          0.80325        2.40807       -0.10612
H         -1.35249        2.11609        1.93379
H          0.38292        1.73424        2.13497
H         -0.13523        3.43254        1.88075
H         -2.15450        2.72125       -0.36522
H         -0.95638        4.05789       -0.42880
H         -0.95605        2.78320       -1.68032
H         -0.34895        1.19988       -0.03660
