35
2msa1a1tma_41.log	Energy: -978624.5434842
S          1.86889       -1.27663       -0.18043
O          1.09055       -2.30747        0.50855
O          2.83699       -0.52467        0.63753
O          0.96938       -0.29223       -0.92835
C          2.78528       -2.09097       -1.47730
H          2.07681       -2.61653       -2.11777
H          3.33617       -1.33844       -2.04146
H          3.46964       -2.79612       -1.00458
S         -2.37055        0.24209       -0.41086
O         -2.85386        1.36405       -1.20534
O         -1.59139        0.57868        0.78646
O         -1.52438       -0.73454       -1.31780
H         -0.52931       -0.62407       -1.14656
C         -3.71893       -0.81471        0.03229
H         -4.41151       -0.21032        0.61969
H         -4.19191       -1.15743       -0.88817
H         -3.29822       -1.63860        0.62172
N         -1.68522       -2.50071        1.92733
H         -0.83016       -2.44301        1.37421
H         -1.65796       -3.38490        2.42449
H         -1.62366       -1.76148        2.62054
N          1.12037        2.13108        0.32634
C          2.48777        2.51781       -0.10382
H          3.17428        1.72858        0.20288
H          2.49720        2.61482       -1.19005
H          2.74780        3.47184        0.36009
C          0.09846        3.09288       -0.15839
H          0.12608        3.11684       -1.24827
H         -0.88329        2.75665        0.17025
H          0.32717        4.08161        0.24594
C          1.04850        1.93328        1.79853
H          0.04597        1.58382        2.04090
H          1.78479        1.17653        2.07060
H          1.26206        2.88498        2.29080
H          0.93375        1.19493       -0.11665
