32
2msa2ma_64.log	Energy: -953964.5602195
S         -2.04582       -1.08350        0.05271
O         -2.34144       -0.12921        1.15531
O         -1.74209       -2.45074        0.45070
O         -0.98359       -0.47998       -0.85417
C         -3.51379       -1.11805       -0.96355
H         -3.73498       -0.10522       -1.30090
H         -3.32459       -1.77934       -1.80933
H         -4.32914       -1.50415       -0.35114
S          2.26928       -0.70059        0.14189
O          2.13122       -1.47596        1.35990
O          2.05364        0.75466        0.26606
O          1.38914       -1.25907       -1.02576
H          0.38371       -1.01286       -0.92268
C          3.87912       -0.96118       -0.56049
H          4.60441       -0.59586        0.16702
H          4.00576       -2.03087       -0.72563
H          3.94848       -0.40697       -1.49567
N         -0.38806        1.79081        1.25719
H         -1.09538        1.02750        1.36341
H          0.53469        1.35393        1.10212
C         -0.38514        2.71970        2.39973
H          0.35900        3.49964        2.23487
H         -1.37251        3.17110        2.49916
H         -0.14451        2.17504        3.31282
H         -0.62659        2.25224        0.33578
N         -0.86664        2.45294       -1.41671
H         -1.10791        1.46660       -1.53388
C          0.41654        2.73030       -2.07339
H          0.40984        2.52790       -3.15169
H          0.68601        3.77896       -1.91997
H          1.18677        2.11002       -1.60788
H         -1.61089        3.00935       -1.82350
