41
2msa1dma1tma_103.log	Energy: -1027940.5276755
S          1.63712       -1.16676       -0.94036
O          2.94196       -0.54184       -1.20828
O          0.61293       -0.85608       -1.97847
O          1.13352       -0.85916        0.43697
C          1.85946       -2.93418       -0.99056
H          2.21789       -3.19550       -1.98642
H          2.59193       -3.20907       -0.23163
H          0.89689       -3.40571       -0.79096
S         -2.13856        1.06663       -0.79784
O         -2.45028        2.07608       -1.79608
O         -1.08074        1.39442        0.16748
O         -1.81660       -0.31948       -1.47470
H         -0.82331       -0.47468       -1.65575
C         -3.60115        0.61169        0.09472
H         -3.95791        1.51213        0.59633
H         -4.33905        0.25681       -0.62504
H         -3.30559       -0.16727        0.80680
N         -1.62983       -1.52882        1.62663
C         -1.67364       -2.82074        0.96299
C         -1.32503       -1.64211        3.04183
H         -0.90004       -0.97666        1.18137
H         -2.51290       -3.41062        1.34903
H         -1.82827       -2.66915       -0.10890
H         -0.75138       -3.41248        1.10826
H         -2.13374       -2.17568        3.55448
H         -0.38242       -2.18160        3.24485
H         -1.25231       -0.64366        3.48420
N          1.83228        1.71400        0.93770
C          1.09127        2.39882        2.02387
H          0.06724        2.56204        1.69216
H          1.09622        1.75897        2.90742
H          1.58680        3.34653        2.24700
C          3.22800        1.39459        1.33269
H          3.20479        0.79414        2.24274
H          3.68417        0.81967        0.52584
H          3.76824        2.32744        1.50917
C          1.79303        2.48327       -0.33628
H          2.30380        1.89632       -1.10069
H          0.74918        2.62911       -0.61062
H          2.29677        3.44054       -0.18272
H          1.37090        0.78457        0.75293
