35
2msa1a1tma_32.log	Energy: -978626.5971910
S          2.53132       -1.05533       -0.05521
O          3.14730        0.26385       -0.23378
O          2.24845       -1.82803       -1.27472
O          1.25796       -0.95405        0.78804
H         -0.00242       -1.49050       -0.31237
C          3.63726       -2.02835        0.95045
H          4.57339       -2.13664        0.40188
H          3.80136       -1.50074        1.88999
H          3.17907       -3.00164        1.12528
S         -0.15657        2.17353       -0.01771
O         -1.17558        3.13413        0.35376
O         -0.41274        1.33221       -1.19672
O          0.08191        1.24933        1.23935
H          0.63875        0.41061        1.04250
C          1.40577        2.97862       -0.25638
H          1.30328        3.62219       -1.13085
H          1.61611        3.56640        0.63713
H          2.16150        2.20376       -0.41332
N         -0.67590       -1.42844       -1.10497
H         -1.67980       -1.49553       -0.75271
H         -0.41491       -2.11988       -1.80211
H         -0.53418       -0.47436       -1.46979
N         -3.19492       -1.18936        0.04358
C         -3.73138        0.01693       -0.59077
H         -2.98200        0.81185       -0.56870
H         -3.97801       -0.19648       -1.63489
H         -4.64008        0.37485       -0.08162
C         -4.14932       -2.29159       -0.02544
H         -4.39110       -2.50586       -1.07038
H         -3.71149       -3.18863        0.42153
H         -5.08584       -2.05923        0.50748
C         -2.80337       -0.91426        1.42805
H         -2.36226       -1.81213        1.87056
H         -2.05846       -0.11449        1.45248
H         -3.66549       -0.60778        2.04146
