35
2msa1a1tma_01.log	Energy: -978637.3703363
S          2.61245       -0.86714       -0.02518
O          3.05629        0.07425       -1.06633
O          2.11412       -2.17015       -0.54301
O          1.61469       -0.25081        0.91070
H          1.01579        1.19816        0.39763
C          4.03791       -1.26679        0.97086
H          4.77697       -1.73741        0.32212
H          4.43258       -0.34284        1.39416
H          3.72617       -1.95093        1.75998
S         -2.93884       -0.24479        0.11745
O         -2.85768        1.17386        0.50442
O         -2.56474       -1.20430        1.18699
O         -2.18155       -0.53306       -1.14978
H         -1.07393       -1.81445       -0.85196
C         -4.65494       -0.56261       -0.26461
H         -5.23821       -0.36874        0.63597
H         -4.95584        0.10912       -1.06875
H         -4.75801       -1.60359       -0.57159
N         -0.55852       -2.49156       -0.23874
H          0.48236       -2.37738       -0.32579
H         -0.83427       -3.44459       -0.45528
H         -0.90692       -2.23427        0.69474
N          0.75233        2.14194        0.00689
C         -0.20587        2.78193        0.94424
H         -1.12338        2.18956        0.97814
H          0.25856        2.83478        1.92988
H         -0.42732        3.78896        0.58218
C          2.01730        2.90815       -0.10501
H          2.43670        3.04054        0.89337
H          2.70917        2.33321       -0.72121
H          1.80467        3.88205       -0.55173
C          0.14871        1.89246       -1.33006
H          0.88864        1.36944       -1.93766
H         -0.74494        1.27676       -1.21191
H         -0.11074        2.85265       -1.78201
