32
2msa1a1dma_140.log	Energy: -953954.6174637
S          3.03274       -0.53284       -0.29358
O          3.27850        0.91296       -0.46450
O          2.25812       -1.18046       -1.34026
O          2.41994       -0.79811        1.11925
H          1.52798       -0.25428        1.24464
C          4.60422       -1.33339       -0.11043
H          5.13532       -1.20425       -1.05376
H          5.14070       -0.85936        0.71057
H          4.42459       -2.38929        0.09012
S         -0.95636        0.39387        0.67440
O         -2.07701        0.54532        1.59570
O          0.38965        0.59853        1.34023
O         -1.01581        1.30034       -0.52203
H          0.25335        2.16118       -0.59305
C         -0.96612       -1.26705        0.03963
H         -0.83556       -1.94602        0.88367
H         -1.94786       -1.41881       -0.42089
H         -0.15234       -1.37451       -0.67963
N          1.17401        2.71880       -0.48398
H          1.16639        3.12343        0.45014
H          1.25868        3.44927       -1.18511
H          1.97688        2.05700       -0.54107
N         -4.24102       -0.66883       -0.31621
C         -5.49995       -1.35040       -0.07612
C         -4.34415        0.36645       -1.33230
H         -3.89410       -0.25633        0.54597
H         -5.80086       -1.89381       -0.97931
H         -5.37948       -2.08092        0.72886
H         -6.32636       -0.66822        0.19390
H         -4.56233       -0.09495       -2.30264
H         -5.13848        1.10615       -1.12529
H         -3.39055        0.89500       -1.41059
