26
2msa2a_59.log	Energy: -904638.3533216
S         -2.15818        0.70895       -0.02732
O         -3.27883        0.09496        0.71302
O         -2.10140        0.28549       -1.46199
O         -0.84275        0.50540        0.63379
C         -2.46271        2.46716       -0.06237
H         -3.41239        2.63526       -0.57047
H         -2.51141        2.82329        0.96709
H         -1.64525        2.94543       -0.60234
S          2.64641        0.09257       -0.03096
O          2.06849       -1.22879       -0.23929
O          2.59630        1.08019       -1.09275
O          4.21614       -0.15146        0.31942
H          4.74176        0.35186       -0.31904
C          2.05644        0.75339        1.49988
H          0.97422        0.87504        1.37721
H          2.28618        0.03246        2.28448
H          2.55927        1.70465        1.67209
N         -0.57237       -1.91656       -1.21281
H          0.34262       -1.61923       -0.84884
H         -0.44657       -2.55007       -1.99603
H         -1.13709       -2.36916       -0.43464
H         -1.11866       -1.05579       -1.49226
N         -2.25402       -2.72165        0.89261
H         -1.78389       -2.84252        1.78444
H         -2.93798       -3.46646        0.80565
H         -2.76362       -1.83112        0.94402
