44
2msa2tma_68.log	Energy: -1052594.5522108
S          0.88854       -1.71456        0.18962
O         -0.03603       -1.13403        1.19734
O          2.08553       -2.33703        0.78631
O          1.28447       -0.68522       -0.83988
H          2.62297       -0.10110       -0.45910
C         -0.01642       -2.95620       -0.70366
H         -0.34696       -3.70574        0.01621
H         -0.86762       -2.46770       -1.18223
H          0.65563       -3.39697       -1.44004
S         -3.30786       -0.58617       -0.17040
O         -4.57417       -1.28215       -0.28720
O         -2.31478       -0.70942       -1.23457
O         -2.64515       -1.04059        1.20136
H         -1.64359       -1.04591        1.14918
C         -3.62678        1.13938        0.11053
H         -4.13332        1.51559       -0.77984
H         -4.27863        1.22019        0.98075
H         -2.67325        1.65833        0.26503
N         -0.71070        2.74123        0.13576
C         -0.30443        2.25223       -1.17078
H         -0.17218        1.16870       -1.14414
H         -1.07380        2.48991       -1.91144
H          0.64638        2.71689       -1.50699
C         -0.90515        4.17746        0.13426
H         -1.64862        4.45190       -0.62015
H         -1.27021        4.50832        1.11143
H          0.03031        4.72851       -0.08998
C          0.21450        2.32722        1.17079
H         -0.15202        2.64764        2.15097
H          0.30464        1.23739        1.17584
H          1.22216        2.77740        1.02658
N          3.60750        0.26949       -0.20115
C          4.55765       -0.77905       -0.64177
H          4.28187       -1.70839       -0.14144
H          4.46094       -0.90639       -1.72058
H          5.57796       -0.48141       -0.38698
C          3.79508        1.54699       -0.92041
H          3.67933        1.37028       -1.99035
H          3.03000        2.25095       -0.59012
H          4.79005        1.94780       -0.71113
C          3.63462        0.44440        1.27179
H          2.87077        1.17101        1.55023
H          3.40301       -0.51737        1.73094
H          4.62235        0.79982        1.57626
