28
2msa1dma_56.log	Energy: -918452.2460004
S          2.87993       -0.50863        0.00735
O          4.21606       -0.98611        0.26108
O          2.64020        0.94136       -0.02945
O          1.92738       -1.15101        1.10454
H          1.07350       -0.64809        1.17807
C          2.26968       -1.19461       -1.51560
H          2.90754       -0.81043       -2.31269
H          2.34861       -2.27957       -1.44842
H          1.23596       -0.87198       -1.65764
S         -0.67849        1.12801        0.00098
O         -0.35849        0.26257        1.14849
O         -0.74457        0.47042       -1.29725
O          0.36545        2.32237       -0.03804
H          1.28133        1.93081       -0.04651
C         -2.16535        2.01490        0.33721
H         -2.95125        1.24803        0.32742
H         -2.06269        2.49654        1.30896
H         -2.30780        2.74467       -0.45992
N         -3.53935       -0.88206       -0.15224
C         -4.83879       -1.11641       -0.76389
C         -3.30297       -1.72022        1.01557
H         -2.80642       -1.03797       -0.83773
H         -5.62771       -0.80631       -0.07019
H         -4.93384       -0.51645       -1.67286
H         -5.01689       -2.17395       -1.02271
H         -4.01964       -1.45464        1.80027
H         -3.41486       -2.79823        0.81039
H         -2.29720       -1.53678        1.40135
