38
2msa1ma1tma_108.log	Energy: -1003276.9451545
S          2.49792        0.11600       -0.74624
O          1.79963       -1.11051       -1.14312
O          2.81154        0.25703        0.67072
O          1.73527        1.37533       -1.28482
H          0.74694        1.38656       -0.95514
C          3.99608        0.25853       -1.68999
H          3.75025        0.18086       -2.74845
H          4.45599        1.21936       -1.46074
H          4.64333       -0.56235       -1.37988
S         -1.26731        1.63963        0.75657
O         -1.37777        3.07846        0.94093
O         -0.63975        1.22446       -0.55807
O         -2.55698        0.88203        0.88115
H         -2.56578       -0.24750       -0.17915
C         -0.19806        0.97476        2.01713
H          0.78891        1.42737        1.91099
H         -0.63673        1.22176        2.98455
H         -0.13602       -0.10822        1.88041
N          0.81408       -2.39488        1.64745
H          0.69797       -3.39961        1.55991
C          1.65268       -2.08974        2.80823
H          2.62158       -2.60884        2.81397
H          1.85785       -1.01709        2.82505
H          1.11694       -2.34978        3.72629
H          1.27272       -2.07744        0.79536
N         -2.64419       -1.04780       -0.88851
C         -1.40499       -1.85926       -0.78294
H         -0.55624       -1.26455       -1.12004
H         -1.23896       -2.12285        0.26431
H         -1.51277       -2.75706       -1.39755
C         -3.84487       -1.81926       -0.50072
H         -3.68702       -2.23687        0.49400
H         -4.70429       -1.14813       -0.47902
H         -4.01237       -2.62291       -1.22197
C         -2.78478       -0.42385       -2.22461
H         -3.70340        0.16403       -2.24396
H         -1.93046        0.23545       -2.37566
H         -2.81934       -1.20500       -2.98800
