35
2msa1a1tma_82.log	Energy: -978616.6013855
S          2.17487       -1.10681       -0.05758
O          2.72030       -1.02483        1.30747
O          2.94196       -0.37677       -1.08618
O          0.71625       -0.71876       -0.09807
C          2.19712       -2.83300       -0.52528
H          3.23627       -3.16345       -0.52758
H          1.62209       -3.39858        0.20896
H          1.76452       -2.92961       -1.52169
S         -2.67139       -0.39222       -0.07668
O         -2.39344        0.07757        1.27378
O         -2.34228        0.44562       -1.21347
O         -4.27131       -0.68287       -0.14066
H         -4.65412       -0.42228        0.70940
C         -2.01816       -2.01681       -0.32667
H         -2.35083       -2.64922        0.49605
H         -2.38414       -2.38278       -1.28605
H         -0.93005       -1.88520       -0.32573
N          0.51977        0.81678        2.59518
H          1.29314        0.17574        2.41282
H         -0.32851        0.33603        2.30451
H          0.46195        0.95683        3.59843
N          0.71281        2.00644       -0.38997
C         -0.42076        2.80329        0.13814
H         -1.34670        2.41252       -0.28190
H         -0.42107        2.69223        1.22280
H         -0.27903        3.84711       -0.15274
C          2.01147        2.48694        0.15339
H          1.95387        2.42354        1.24008
H          2.80114        1.83371       -0.22014
H          2.16624        3.51695       -0.17707
C          0.72372        1.94557       -1.87348
H          1.53903        1.28520       -2.17300
H         -0.23035        1.53523       -2.20523
H          0.86796        2.95329       -2.27026
H          0.60282        1.00919       -0.07935
