34
2msa1a1eda_114.log	Energy: -988704.5682326
S          0.83007        1.90408       -0.06975
O          1.84721        2.81224        0.44808
O          0.05106        1.22854        1.04218
O          1.34929        0.86931       -1.01074
H          0.89730       -0.76013       -0.56096
C         -0.37748        2.84304       -0.98441
H         -0.80413        3.58704       -0.31088
H          0.13942        3.32779       -1.81311
H         -1.13979        2.15341       -1.35211
S         -2.59525       -0.59746       -0.11539
O         -1.95183       -1.89855        0.11132
O         -2.33454        0.04379       -1.39809
O         -2.28101        0.38079        1.06475
H         -1.30244        0.75842        1.01894
C         -4.34225       -0.80378        0.11884
H         -4.68322       -1.49742       -0.65019
H         -4.51072       -1.21531        1.11346
H         -4.82104        0.16820        0.00515
N          1.75373       -0.84683        2.44663
H          1.33815        0.08419        2.42687
H          2.73959       -0.76403        2.20802
H          1.66714       -1.22752        3.38172
H          2.20273       -3.28938        0.16334
H          1.44504       -3.16690       -1.44113
H          3.87298       -2.56491       -1.43223
H          2.82705       -1.29237       -2.06873
H          4.65554       -0.79270       -0.27649
H          3.22415       -0.00853       -0.24230
H         -0.06724       -2.03543       -0.07169
H          1.14130       -1.44077        0.94932
C          1.90576       -2.59818       -0.62949
C          3.11635       -1.82576       -1.15239
N          0.89491       -1.67380       -0.06016
N          3.66072       -0.92372       -0.13790
