35
2msa1ma1dma_98.log	Energy: -978627.3360771
S          1.39203       -1.60685        0.10857
O          2.37175       -1.06353        1.06438
O          1.77110       -1.48880       -1.31149
O          0.02086       -1.02065        0.36712
C          1.22259       -3.35010        0.45246
H          2.19474       -3.81677        0.29181
H          0.90678       -3.46861        1.48909
H          0.48235       -3.76453       -0.23257
S         -2.91684        0.12527       -0.27439
O         -4.10314        0.43159       -1.04381
O         -2.10636        1.23024        0.24926
O         -1.99981       -0.81342       -1.14807
H         -1.11338       -0.95629       -0.66221
C         -3.35052       -0.91000        1.10904
H         -3.97526       -0.31623        1.77711
H         -3.90025       -1.77133        0.72987
H         -2.42682       -1.21512        1.60303
N          2.61782        1.34359       -1.36834
H          2.37740        0.38679       -1.64423
C          3.93411        1.33944       -0.71379
H          4.74726        1.04117       -1.38564
H          4.15627        2.33664       -0.32125
H          3.89694        0.63193        0.11772
H          2.63589        1.90939       -2.21114
N          0.64738        1.90642        0.48795
C          0.05481        3.21545        0.15238
C          1.25253        1.84293        1.83573
H         -0.07971        1.17996        0.41621
H          0.84260        3.97150        0.15837
H         -0.40080        3.15142       -0.83499
H         -0.71758        3.46545        0.87969
H          2.03243        2.60386        1.90692
H          0.48213        2.03171        2.58561
H          1.68399        0.84904        1.96655
H          1.39935        1.67557       -0.24811
