29
2msa1a1ma_101.log	Energy: -929298.8562521
S          2.36395        0.11884        0.02511
O          3.67928        0.54732       -0.39317
O          2.11208       -1.33128        0.13770
O          1.31495        0.73591       -0.97519
H          0.39308        0.30189       -0.89715
C          1.94581        0.85205        1.58603
H          2.63992        0.45093        2.32546
H          2.06896        1.93048        1.48440
H          0.91135        0.58626        1.81867
S         -1.74507       -0.66753        0.32920
O         -0.96876       -0.37717       -0.93819
O         -1.16111       -0.00879        1.50202
O         -1.90278       -2.14788        0.46334
H         -0.64628       -2.81401       -0.28902
C         -3.36716        0.00757        0.07125
H         -3.24485        1.07797       -0.12128
H         -3.81569       -0.49397       -0.78637
H         -3.94608       -0.17734        0.97647
N          0.21798       -2.99440       -0.88820
H         -0.00194       -2.66433       -1.82630
H          0.48663       -3.97411       -0.90262
H          0.99154       -2.39781       -0.51226
N         -1.78030        2.73791       -1.03903
H         -1.38415        1.92285       -1.49821
C         -0.91669        3.16948        0.06074
H          0.11374        3.41069       -0.23895
H         -1.35397        4.05253        0.53547
H         -0.87814        2.37586        0.81209
H         -1.86126        3.46713       -1.73893
