32
2msa1a1dma_60.log	Energy: -953967.3079391
S         -2.19118       -0.50379       -0.11116
O         -1.93392       -1.87502        0.40889
O         -1.55388       -0.22113       -1.40706
O         -1.84629        0.51511        0.93813
H         -0.94706        1.71683        0.69528
C         -3.95331       -0.38345       -0.34428
H         -4.24761       -1.13754       -1.07433
H         -4.43966       -0.55995        0.61483
H         -4.17543        0.61779       -0.71392
S          1.10691        2.08338        0.08837
O          2.02605        3.17166        0.34290
O         -0.31605        2.51593        0.59651
O          1.42686        0.75623        0.64349
H          0.43039       -0.52281        1.83919
C          0.87946        1.88442       -1.66294
H          0.59110        2.85256       -2.07273
H          1.83414        1.56194       -2.08112
H          0.09737        1.13634       -1.81877
N          0.35562       -1.54702        1.85234
H          0.44209       -1.90546        2.79778
H          1.13909       -1.89076        1.19440
H         -0.57110       -1.79314        1.42841
N          2.21412       -2.01977       -0.09788
C          1.37478       -2.20851       -1.28470
C          3.34740       -2.93779       -0.04278
H          2.53949       -1.05486       -0.08087
H          0.90853       -3.19749       -1.24464
H          0.57518       -1.46344       -1.29793
H          1.94978       -2.13445       -2.21909
H          2.97801       -3.96356        0.05359
H          3.97905       -2.88725       -0.94180
H          3.96452       -2.71111        0.83044
