34
2msa1a1eda_137.log	Energy: -988703.2121909
S          2.49766        1.03643       -0.08115
O          3.72412        1.67974        0.34174
O          1.46451        1.89389       -0.68729
O          1.88175        0.29159        1.16213
C          2.84176       -0.26933       -1.23741
H          3.29476        0.20257       -2.11006
H          3.53986       -0.96270       -0.76803
H          1.89972       -0.75935       -1.49957
S         -0.49429       -2.07379       -0.09321
O         -0.22959       -1.49661       -1.42582
O         -1.77446       -1.64170        0.50774
O          0.66598       -1.85789        0.84366
H          1.35789       -0.58244        0.95187
C         -0.58139       -3.84434       -0.27991
H          0.35901       -4.19163       -0.70777
H         -0.74522       -4.28495        0.70343
H         -1.41374       -4.06836       -0.94752
N         -1.10032        0.48640        2.44125
H         -1.62238        0.72160        3.27850
H         -0.12146        0.38866        2.69901
H         -1.41552       -0.42366        2.09743
H         -1.76687        1.99104       -1.89345
H         -1.35155        0.40040       -1.22227
H         -3.82100        0.62724       -1.47954
H         -3.35277        0.43104        0.20531
H         -4.22342        2.92921       -1.06118
H         -4.73138        2.26388        0.33993
H         -0.16898        2.17322       -0.12598
H         -1.65104        2.89401        0.31406
C         -1.86012        1.34368       -1.01597
C         -3.31585        1.12300       -0.64089
N         -1.16569        2.01844        0.11072
N         -3.91944        2.40106       -0.24985
H         -1.18662        1.43632        1.00852
