40
2msa1dma1eda_479.log	Energy: -1038009.7487377
S         -2.70941       -0.03409       -0.10994
O         -2.46154        0.89640        1.01426
O         -2.57536       -1.47122        0.26823
O         -1.89143        0.29457       -1.30987
C         -4.41919        0.18254       -0.57893
H         -4.56489        1.22371       -0.86768
H         -4.63489       -0.48442       -1.41379
H         -5.03898       -0.06676        0.28277
S          1.35115        2.05926       -0.10429
O          1.79549        1.90145        1.27581
O          1.40689        0.91819       -0.99992
O          2.30364        3.19763       -0.76848
H          2.84068        3.58673       -0.06345
C         -0.24200        2.81719       -0.16694
H         -0.95361        2.13788        0.32074
H         -0.17511        3.76957        0.35937
H         -0.50975        2.94436       -1.21539
N          1.13628       -1.11484        1.81513
C          1.99310       -2.21139        2.25826
C         -0.02204       -0.89745        2.68579
H          1.67582       -0.25350        1.77373
H          1.41041       -3.13924        2.26775
H          2.81449       -2.33427        1.54800
H          2.39454       -2.05616        3.27089
H         -0.67633       -1.77382        2.64434
H          0.26816       -0.72612        3.73270
H         -0.60498       -0.04665        2.32589
H          0.93053       -3.58501       -0.74820
H         -0.02183       -3.13279       -2.18330
H          2.38460       -3.06805       -2.65580
H          1.66573       -1.46281       -2.82405
H          3.84252       -1.76351       -1.49419
H          2.69096       -0.81571       -0.83684
H         -0.94546       -1.98640       -0.30822
H          0.54623       -1.45131        0.25362
C          0.68038       -2.76767       -1.42896
C          1.94402       -2.23866       -2.09405
N          0.00459       -1.72059       -0.63633
N          2.90839       -1.77336       -1.10164
H         -0.17865       -0.86043       -1.17277
