43
2msa1eda1tma_27.log	Energy: -1062691.3841664
S         -2.66039        0.43536       -0.07328
O         -2.65087        1.92385        0.04253
O         -2.36510       -0.25455        1.19898
O         -1.77344       -0.02643       -1.18101
C         -4.32117       -0.00326       -0.54530
H         -4.99866        0.32751        0.24208
H         -4.55156        0.49134       -1.48884
H         -4.35477       -1.08786       -0.65890
S          3.01637       -0.23365       -0.01580
O          3.26323        1.21316        0.12116
O          2.52055       -0.63262       -1.36672
O          2.13643       -0.78978        1.05762
C          4.60198       -1.03248        0.18576
H          5.27159       -0.65387       -0.58691
H          4.98237       -0.78686        1.17751
H          4.46542       -2.10911        0.08145
H         -0.55298       -3.57216       -1.50929
H          0.93446       -3.80236       -0.55193
H         -0.94644       -4.85457        0.57036
H         -0.34212       -3.51111        1.54236
H         -2.86541       -3.76177        1.12105
H         -2.26372       -2.25595        0.91258
H         -0.67327       -1.29277       -0.75668
H          0.61592       -1.54029        0.32340
C         -0.04609       -3.31997       -0.57566
C         -0.88439       -3.76265        0.61596
N          0.18364       -1.85664       -0.56585
N         -2.23107       -3.21129        0.55483
H          0.91329       -1.55808       -1.23965
N         -0.10073        2.77905        0.12040
C          0.54953        2.33362       -1.14329
H          0.28476        1.29111       -1.31438
H          0.16117        2.94099       -1.96178
H          1.63154        2.42671       -1.04308
C          0.03185        4.23853        0.32047
H         -0.40338        4.75629       -0.53490
H         -0.49960        4.52230        1.22949
H          1.09057        4.48932        0.41181
C          0.39902        2.01953        1.29989
H         -0.15321        2.35028        2.17993
H          0.21708        0.95829        1.13962
H          1.47290        2.17732        1.40295
H         -1.12534        2.54132        0.04395
