29
2msa1a1ma_76.log	Energy: -929296.3374542
S         -1.45513       -0.71518       -0.23927
O         -0.86214       -0.60805        1.08822
O         -1.55597        0.53491       -1.01260
O         -2.88612       -1.35234       -0.15861
H         -3.62250       -0.57332       -0.09550
C         -0.57743       -1.93308       -1.17843
H          0.45260       -1.57550       -1.26583
H         -0.62254       -2.87385       -0.62941
H         -1.05509       -2.02480       -2.15342
S          3.01065       -0.00902        0.16972
O          4.45491       -0.13916        0.11290
O          2.22434       -0.41189       -1.00311
O          2.62824        1.46828        0.53995
H          1.86893        1.84448       -0.10011
C          2.42021       -0.92059        1.57961
H          2.68197       -1.96734        1.41836
H          2.92588       -0.53499        2.46500
H          1.33865       -0.79291        1.64950
N          0.83554        2.35398       -1.07588
H          0.58487        3.33238       -0.97762
H         -0.01474        1.78821       -1.01447
H          1.22112        2.21537       -2.00553
N         -4.49222        0.62327        0.01649
H         -4.13032        1.24194       -0.70592
C         -4.30165        1.22057        1.34926
H         -4.81218        2.18191        1.46157
H         -4.67319        0.52606        2.10473
H         -3.23227        1.36204        1.51843
H         -5.47565        0.46117       -0.17785
