40
2msa1dma1eda_258.log	Energy: -1038019.9146734
S          0.94969        2.10590        0.60326
O          1.92131        2.73327        1.47795
O         -0.31042        1.74404        1.47775
O          1.37291        0.92713       -0.15680
C          0.30710        3.29410       -0.55611
H         -0.51747        2.82388       -1.09436
H         -0.03532        4.16374        0.00461
H          1.11994        3.56193       -1.23169
S         -2.48584       -0.09545       -0.67080
O         -3.03949       -1.09302        0.26027
O         -1.26476       -0.55003       -1.38164
O         -2.27420        1.24757       -0.03012
H         -1.11726        1.48310        0.89248
C         -3.72345        0.19631       -1.92039
H         -3.91966       -0.75244       -2.42017
H         -4.62230        0.56530       -1.42651
H         -3.33860        0.93206       -2.62656
N          3.17149       -1.78950       -1.24896
C          4.05571       -1.02901       -0.36104
C          2.82183       -1.04080       -2.46011
H          3.62624       -2.65839       -1.51224
H          3.52478       -0.13647       -0.01990
H          4.31353       -1.63804        0.50983
H          4.98481       -0.71478       -0.85882
H          2.25194       -0.15386       -2.17087
H          3.70778       -0.72047       -3.02778
H          2.19277       -1.66009       -3.10477
H          1.53468       -2.50284        1.88192
H          1.33330       -0.73927        1.71731
H         -0.35502       -1.89446        3.29568
H         -1.06944       -0.90209        2.03016
H         -1.45110       -3.65861        2.37821
H         -2.08546       -2.65671        1.22472
H          1.61786       -1.95077       -0.42200
H          0.12671       -2.73566       -0.03682
C          0.86514       -1.70742        1.54112
C         -0.50480       -1.82117        2.21400
N          0.69033       -1.88498        0.08163
N         -1.22638       -2.97177        1.67129
H          0.13564       -1.12222       -0.35359
