32
2msa1a1dma_130.log	Energy: -953954.7638428
S          1.15315        1.51268        0.21665
O          2.54052        1.77081       -0.14375
O          0.43506        0.65192       -0.81395
O          0.31915        2.74013        0.43691
H         -0.90745        2.71338       -0.47809
C          1.11941        0.58625        1.73349
H          1.65193       -0.34907        1.53432
H          1.62742        1.18508        2.49015
H          0.07931        0.40508        2.01037
S         -2.33841       -0.81677        0.18140
O         -2.95209        0.14454       -0.75617
O         -2.19347       -0.36390        1.55630
O         -0.98135       -1.32563       -0.39954
H         -0.31734       -0.51591       -0.54437
C         -3.28775       -2.31343        0.13224
H         -4.27266       -2.07637        0.53524
H         -3.35797       -2.64805       -0.90207
H         -2.78379       -3.05220        0.75496
N         -1.69663        2.58505       -1.20895
H         -2.32438        3.38372       -1.22915
H         -2.21937        1.70955       -0.99595
H         -1.24554        2.46691       -2.11382
N          2.69392       -1.56706       -0.24104
C          2.38693       -2.92476       -0.65270
C          4.11682       -1.32481       -0.06826
H          2.31977       -0.90630       -0.91494
H          2.67919       -3.62188        0.14091
H          1.30952       -3.02773       -0.80933
H          2.90800       -3.23512       -1.57641
H          4.48693       -1.90898        0.78236
H          4.71899       -1.60061       -0.95237
H          4.27537       -0.26442        0.14238
