42
2msa2eda_365.log	Energy: -1072754.5689138
S          2.04500       -1.42125       -0.76353
O          3.26894       -1.67200       -0.00280
O          2.02003       -0.13234       -1.49342
O          0.81558       -1.54656        0.12377
C          1.85340       -2.71464       -1.97534
H          2.70724       -2.66677       -2.65159
H          1.82905       -3.66926       -1.44975
H          0.92258       -2.54610       -2.51773
S         -2.55332       -1.12756        0.65538
O         -2.20098       -0.01867        1.55905
O         -2.61984       -2.45649        1.23316
O         -1.58192       -1.09387       -0.59441
H         -0.61607       -1.32672       -0.34404
C         -4.07220       -0.71916       -0.16045
H         -4.84349       -0.71938        0.61065
H         -3.95611        0.27500       -0.60300
H         -4.27277       -1.48816       -0.90606
H          1.30138        2.38349        2.68463
H          1.40101        0.77913        3.45090
H          3.60808        1.52972        2.71078
H          3.13121        0.06942        1.84292
H          4.04554        2.24398        0.64366
H          3.00579        1.23219       -0.09444
H         -0.44832        0.70436        1.97015
H          0.37446        1.45428        0.71480
C          1.50953        1.32492        2.51008
C          2.91930        1.14163        1.95410
N          0.48657        0.81838        1.56230
N          3.10680        1.86789        0.69680
H          0.73029       -0.11937        1.18266
H         -1.59842        1.31363       -2.18511
H         -2.37596        2.82904       -2.62498
H         -0.04685        3.28001       -2.64202
H         -0.66794        4.03894       -1.17013
H          0.81320        1.50069       -1.32043
H          1.27597        2.86000       -0.57278
H         -2.16900        1.78343        0.11596
H         -2.94092        3.15503       -0.33655
C         -1.80396        2.33196       -1.83354
C         -0.47723        3.07195       -1.65094
N         -2.65454        2.23467       -0.65435
N          0.45198        2.31103       -0.81107
