44
2msa2tma_50.log	Energy: -1052600.1274755
S         -2.44338       -1.44496       -0.21556
O         -3.79471       -1.47291        0.31322
O         -1.69071       -2.68802       -0.32490
O         -1.52725       -0.49655        0.67530
C         -2.47125       -0.60905       -1.78793
H         -1.45435       -0.51341       -2.16505
H         -3.08721       -1.21631       -2.45231
H         -2.91026        0.37874       -1.64331
S         -0.34416        2.34226       -0.23714
O         -0.30754        2.02076       -1.66806
O          0.80242        1.77067        0.52968
O         -1.65062        1.98908        0.41980
H         -1.72885        0.51275        0.59845
C         -0.22241        4.11231       -0.06924
H          0.71718        4.42864       -0.52266
H         -1.06986        4.55672       -0.59130
H         -0.24867        4.36266        0.99117
N          2.58997       -0.97324       -1.13208
C          3.23696        0.28884       -1.46690
H          2.60370        1.11686       -1.13861
H          4.20324        0.35811       -0.95463
H          3.41851        0.39062       -2.55232
C          3.42722       -2.10601       -1.49065
H          4.38428       -2.04835       -0.96148
H          2.93201       -3.04148       -1.20923
H          3.63621       -2.14873       -2.57580
C          1.28480       -1.06641       -1.77637
H          0.74496       -1.95031       -1.42014
H          0.70276       -0.17203       -1.54135
H          1.37271       -1.13206       -2.87676
N          1.20195       -0.53208        1.90661
C          2.61452       -0.11871        2.10159
H          3.16213       -0.40206        1.20284
H          2.64132        0.96332        2.22753
H          3.01331       -0.62374        2.98404
C          0.34884       -0.11683        3.05015
H          0.37258        0.97080        3.11498
H         -0.66953       -0.45099        2.85951
H          0.74182       -0.56925        3.96310
C          1.08996       -1.98794        1.63068
H          0.06345       -2.21898        1.34846
H          1.76311       -2.21807        0.80642
H          1.37937       -2.53221        2.53259
H          0.86874        0.01775        1.08885
