34
2msa1a1eda_36.log	Energy: -988711.1057705
S         -2.94726       -0.26261       -0.11223
O         -2.78138        1.14237       -0.51280
O         -1.93704       -0.62794        0.96286
O         -2.91320       -1.25820       -1.20380
C         -4.54223       -0.41204        0.67216
H         -4.58140        0.28758        1.50713
H         -5.29969       -0.16398       -0.07180
H         -4.66438       -1.43806        1.01896
S          2.53370       -0.96393        0.19570
O          2.48575        0.08225        1.25077
O          1.68576       -0.55646       -0.98103
O          2.20201       -2.32411        0.65477
C          4.21565       -0.99941       -0.39410
H          4.28243       -1.74346       -1.18782
H          4.47433       -0.00888       -0.76862
H          4.85696       -1.27283        0.44410
N         -0.39907       -2.33083       -0.52928
H         -1.13711       -2.56366       -1.19663
H         -0.88539       -1.81705        0.24262
H          0.12332       -3.12858       -0.17055
H          0.30063       -1.67796       -0.94295
H         -0.91165        3.04724        0.11296
H         -0.12212        3.05620        1.71638
H          1.12956        4.40439       -0.04187
H          2.10318        3.13108        0.70380
H          1.84904        3.40215       -1.94083
H          1.96887        1.89503       -1.29109
H         -0.79202        0.78131        0.96412
H          0.15101        0.99530       -0.36589
C         -0.02097        2.75430        0.67158
C          1.24906        3.32068        0.03780
N          0.05032        1.27736        0.61655
N          1.42420        2.75243       -1.29389
H          0.89890        0.90162        1.08802
