42
2msa2eda_334.log	Energy: -1072754.9980801
S         -0.51888        2.20646        0.49479
O         -1.32078        1.79253       -0.70539
O          0.46982        3.24063        0.19334
O          0.06091        0.98854        1.14688
C         -1.68911        2.87763        1.66182
H         -2.14272        3.75904        1.20801
H         -2.44663        2.12117        1.87092
H         -1.14785        3.14816        2.56871
S         -2.69250       -1.44477       -0.40650
O         -1.59701       -1.63095       -1.36882
O         -3.86357       -2.28424       -0.52695
O         -3.17027        0.05528       -0.44202
H         -2.40742        0.72257       -0.58093
C         -2.00207       -1.61585        1.22559
H         -1.21250       -0.87046        1.35088
H         -2.80589       -1.46572        1.94680
H         -1.59877       -2.62594        1.30618
H          1.52815       -0.16864       -3.10272
H          0.40844        1.04421       -2.43823
H          2.62575        2.03963       -2.67931
H          2.17328        1.94847       -0.98267
H          4.08146        0.16287       -2.32505
H          4.32733        1.11798       -1.02445
H          0.07234       -0.99035       -1.32369
H          1.69958       -1.18027       -0.88822
C          1.29412        0.44171       -2.22516
C          2.46082        1.34079       -1.84678
N          0.94817       -0.48210       -1.11821
N          3.63694        0.54486       -1.49612
H          0.74347        0.04763       -0.24866
H          3.90755       -2.76475        1.63647
H          4.39827       -1.62033        0.36910
H          3.63938       -0.46801        2.43698
H          2.70815       -0.02970        1.00978
H          1.78074       -1.66672        3.22769
H          1.02666       -0.45422        2.40776
H          2.96949       -3.31873       -0.54477
H          1.78228       -2.92024        0.51848
C          3.54150       -2.00109        0.93250
C          2.90936       -0.84732        1.70704
N          2.56665       -2.55221       -0.01633
N          1.64125       -1.25689        2.31093
