41
2msa1dma1tma_131.log	Energy: -1027936.5515873
S          1.73614       -2.37733       -0.02122
O          2.72655       -3.25610       -0.61229
O          0.40139       -2.89695        0.26350
O          1.48309       -1.10959       -0.95003
C          2.41615       -1.66084        1.46167
H          2.51862       -2.47372        2.18154
H          3.38619       -1.22563        1.22093
H          1.74632       -0.88051        1.82546
S          2.02222        1.89890        0.06264
O          1.55048        1.61702        1.43068
O          0.89428        2.09779       -0.89644
O          2.99661        0.88510       -0.45080
H          2.19690       -0.38961       -0.85908
C          2.92448        3.43402        0.09601
H          3.75807        3.31843        0.78879
H          3.28370        3.64107       -0.91178
H          2.24605        4.21614        0.43709
N         -4.75998       -0.46971        0.28306
C         -5.60589       -0.13225       -0.85381
C         -5.19185        0.17646        1.51538
H         -4.75371       -1.47589        0.41365
H         -5.50917        0.93753       -1.07217
H         -5.27800       -0.68493       -1.73850
H         -6.67473       -0.34249       -0.68622
H         -5.06378        1.26079        1.42007
H         -6.24795       -0.01490        1.76591
H         -4.57099       -0.16141        2.34961
N         -1.27320        0.54731       -0.45449
C         -2.15480        1.73957       -0.49769
H         -1.81449        2.44585        0.25943
H         -2.06972        2.20206       -1.48133
H         -3.17761        1.41299       -0.30234
C         -1.64536       -0.45121       -1.48796
H         -1.58318        0.02439       -2.46755
H         -0.94273       -1.28144       -1.43391
H         -2.66399       -0.78439       -1.28201
C         -1.25149       -0.05124        0.90778
H         -0.71200       -0.99761        0.86336
H         -0.74082        0.64448        1.57526
H         -2.28513       -0.22615        1.21064
H         -0.31588        0.92148       -0.66493
