32
2msa1a1dma_172.log	Energy: -953930.6445124
S          2.60596       -0.74291        0.65500
O         -0.23574       -2.57166       -0.08079
O          2.07118        0.56456        1.20992
O          2.24845       -0.80539       -0.90877
H          1.32701       -1.36480       -1.11468
C          4.36181       -0.41081        0.42564
H          4.79956       -0.22514        1.40799
H          4.82759       -1.27753       -0.04632
H          4.45265        0.47304       -0.20951
S         -2.66099       -0.18705        0.13454
O         -2.76899       -1.65800       -0.03167
O         -3.90586        0.56615        0.05124
O         -1.58254        0.34154       -0.79472
H         -0.41769        1.35538       -0.44935
C         -1.98642        0.06370        1.77668
H         -2.68305       -0.37354        2.49278
H         -1.01232       -0.42474        1.83968
H         -1.89876        1.13606        1.95840
N          0.04590       -1.95531       -1.32185
H         -1.20787       -2.45753        0.04007
H         -0.09175       -2.65012       -2.05399
H         -0.63098       -1.18891       -1.44825
N          0.39560        2.02445       -0.32873
C         -0.09639        3.25986        0.30842
C          1.01770        2.23066       -1.65226
H          1.07974        1.53050        0.29522
H         -0.88923        3.69021       -0.30552
H         -0.49326        3.01572        1.29383
H          0.72372        3.97207        0.41464
H          0.25984        2.57762       -2.35637
H          1.81669        2.97004       -1.56757
H          1.43592        1.27885       -1.98210
