26
2msa2a_46.log	Energy: -904639.1673269
S         -2.51452       -0.22715       -0.21611
O         -3.90671       -0.50679        0.09614
O         -1.64342       -0.06406        1.01461
O         -2.29216        0.96865       -1.09611
H         -1.40155        1.98396       -0.36467
C         -1.84373       -1.61768       -1.10623
H         -1.96679       -2.50500       -0.48415
H         -2.41518       -1.71934       -2.02926
H         -0.79011       -1.42923       -1.31961
S          1.64552       -0.24738        0.47619
O          1.59044        1.21202        0.69354
O          1.44831       -0.68882       -0.90123
O          0.63645       -0.96063        1.43656
H         -0.34322       -0.63916        1.25684
C          3.18716       -0.84949        1.09813
H          3.95176       -0.45190        0.42174
H          3.30880       -0.49155        2.11987
H          3.15784       -1.93844        1.05875
N         -0.79411        2.57719        0.30633
H         -1.24600        2.52915        1.21807
H         -0.71160        3.54155       -0.00197
H          0.14183        2.12839        0.39331
N          4.32988        0.33620       -1.74489
H          3.41493       -0.01255       -2.02027
H          5.01516       -0.02321       -2.40026
H          4.31390        1.34602       -1.83934
