40
2msa1dma1eda_368.log	Energy: -1038016.0783504
S          1.81587        1.74910        0.15567
O          2.24580        0.88269        1.26129
O          0.59772        2.54490        0.39400
O          1.66643        0.95915       -1.13929
C          3.14107        2.89724       -0.16533
H          3.28641        3.49007        0.73812
H          4.04014        2.32706       -0.39950
H          2.85335        3.53332       -1.00223
S          0.93195       -2.38375       -0.31485
O          0.89868       -3.75451       -0.77426
O         -0.35182       -1.66574       -0.20678
O          1.89260       -1.58283       -1.27014
H          1.83612       -0.56918       -1.15572
C          1.72704       -2.28660        1.27007
H          1.07496       -2.78712        1.98703
H          2.68391       -2.80271        1.19108
H          1.86818       -1.23079        1.51758
N         -2.49521        0.36899        1.91807
C         -1.11405        0.46639        2.39469
C         -2.99386       -1.00448        1.94844
H         -3.07885        0.94118        2.52190
H         -0.46988       -0.13408        1.74801
H         -0.76516        1.49866        2.33569
H         -0.99116        0.09685        3.42557
H         -2.39024       -1.61671        1.27183
H         -2.94707       -1.46137        2.95035
H         -4.03268       -1.03029        1.60408
H         -2.13515        1.55322       -2.82217
H         -1.74812       -0.19106       -2.86818
H         -4.18166        0.26635       -2.41548
H         -3.40510       -0.65030       -1.12102
H         -4.80489        1.56616       -0.66097
H         -3.46865        1.20111        0.24794
H         -0.12787        1.04024       -1.50819
H         -1.33313        1.58617       -0.52770
C         -2.09151        0.63219       -2.23772
C         -3.44740        0.33593       -1.60804
N         -1.08377        0.82725       -1.17014
N         -3.80588        1.41161       -0.69387
H         -0.95741       -0.04049       -0.62062
