43
2msa1eda1tma_55.log	Energy: -1062687.2628160
S         -0.20027        2.30010        0.41710
O          0.69879        1.75858        1.48765
O         -1.62459        1.96086        0.62748
O          0.30067        1.97142       -0.93944
H         -1.72414       -0.49595       -0.80419
C         -0.08946        4.07702        0.58679
H         -0.42621        4.34463        1.58861
H          0.94891        4.37342        0.43710
H         -0.73092        4.53247       -0.16834
S         -0.36798       -2.02258        0.89478
O         -1.36707       -3.08084        0.69474
O         -0.37615       -1.01750       -0.23144
O          1.03030       -2.46346        1.13226
H          1.98366       -1.02055        0.53500
C         -0.84859       -1.10089        2.34837
H         -0.78771       -1.77376        3.20446
H         -0.18049       -0.24426        2.45494
H         -1.86853       -0.74067        2.21192
H          3.67357        1.19495       -0.56836
H          4.14319        0.13783        0.77311
H          3.90323       -1.85200       -0.79204
H          3.58159       -0.72012       -2.11017
H          6.10123       -0.88649       -0.62367
H          5.85843       -1.05948       -2.23102
H          1.75090        0.63185        0.80746
H          1.54446        0.01893       -0.66517
C          3.58371        0.18481       -0.16528
C          4.11813       -0.83719       -1.16253
N          2.16589       -0.07286        0.14671
N          5.53114       -0.57637       -1.40330
N         -2.68416       -0.40567       -1.26305
C         -2.84660       -1.65522       -2.04383
H         -2.08866       -1.67669       -2.82725
H         -2.68986       -2.50062       -1.37091
H         -3.84570       -1.68171       -2.48590
C         -3.67137       -0.31786       -0.16019
H         -3.60761       -1.23507        0.42818
H         -3.41143        0.54728        0.45063
H         -4.67378       -0.21319       -0.58340
C         -2.69387        0.80757       -2.11261
H         -2.53475        1.66980       -1.46603
H         -1.87266        0.74183       -2.82628
H         -3.65217        0.86959       -2.63551
