32
2msa1a1dma_126.log	Energy: -953955.2612257
S          1.93678        1.45763        0.10387
O          2.48644        2.62808        0.78014
O          1.42498        0.37766        0.99062
O          2.89171        0.85388       -0.91091
H          3.01939       -0.57233       -0.75820
C          0.54375        1.99714       -0.87458
H         -0.19006        2.44346       -0.20314
H          0.90095        2.73265       -1.59591
H          0.10821        1.13192       -1.37517
S         -2.27634       -0.73744        0.15474
O         -1.31898       -1.39996       -0.71710
O         -3.59535       -1.34295        0.34143
O         -2.47955        0.74782       -0.36133
H         -3.48367        0.96968       -0.43315
C         -1.51591       -0.48686        1.73829
H         -1.37999       -1.47462        2.18190
H         -0.54720        0.00008        1.58358
H         -2.18539        0.11661        2.35127
N         -5.08021        1.10977       -0.52747
H         -5.34409        0.16992       -0.23703
H         -5.43251        1.26482       -1.46646
H         -5.52604        1.77768        0.09269
N          3.06774       -1.67278       -0.62703
C          1.73277       -2.22088       -0.96391
C          3.49536       -1.95488        0.76178
H          3.76389       -2.02366       -1.28211
H          0.99317       -1.74058       -0.32364
H          1.50324       -1.97816       -2.00153
H          1.72304       -3.30340       -0.81956
H          2.77677       -1.47299        1.42571
H          3.53092       -3.03344        0.93083
H          4.47953       -1.51303        0.92134
