35
2msa1a1tma_62.log	Energy: -978616.2209454
S         -2.89958        0.95130       -0.11345
O         -3.12352        0.03036        1.02071
O         -3.28479        0.46226       -1.42431
O         -1.43094        1.47860       -0.08659
H         -0.70919        0.79321       -0.41316
C         -3.75942        2.45730        0.26357
H         -4.82027        2.21155        0.31706
H         -3.39767        2.83391        1.21977
H         -3.56607        3.16820       -0.53923
S          0.60827       -1.43622       -0.33657
O          0.38495       -0.04574       -0.85186
O         -0.32545       -2.41859       -0.94741
O          0.56809       -1.49159        1.15030
H         -1.07531       -2.19905        1.64326
C          2.25334       -1.85127       -0.85124
H          2.27057       -1.84179       -1.94156
H          2.93421       -1.09637       -0.43849
H          2.47549       -2.84838       -0.47015
N         -1.97983       -2.45110        1.19927
H         -2.46547       -3.20337        1.67661
H         -1.67736       -2.70698        0.23608
H         -2.55117       -1.57945        1.14607
N          3.76753        0.91494        0.19086
C          5.17540        1.10666        0.48521
H          5.46173        0.49833        1.34868
H          5.78141        0.79360       -0.37079
H          5.41890        2.16329        0.71156
C          3.36637        1.66430       -0.98947
H          3.96820        1.35050       -1.84863
H          2.31524        1.46062       -1.20969
H          3.49810        2.75547       -0.85659
C          2.93668        1.25835        1.33468
H          1.88681        1.07016        1.09869
H          3.20833        0.63336        2.19044
H          3.04971        2.32052        1.62636
