38
2msa2dma_112.log	Energy: -1003283.0584459
S         -2.20860       -0.17036       -0.85666
O         -0.94196       -0.92700       -1.14053
O         -2.09754        1.27101       -1.10637
O         -2.69072       -0.51945        0.51314
H         -1.38629       -1.16413        1.31468
C         -3.41638       -0.81836       -1.99384
H         -3.06982       -0.60911       -3.00596
H         -3.50667       -1.89177       -1.82876
H         -4.36353       -0.31484       -1.79915
S          2.46565       -0.65779       -0.70440
O          3.61789       -1.14390       -1.43085
O          1.81367       -1.57148        0.24964
O          1.39456       -0.12770       -1.72689
H          0.43808       -0.39858       -1.49202
C          2.91311        0.81158        0.18778
H          3.65044        0.51836        0.93619
H          3.35002        1.51446       -0.52206
H          2.00869        1.23055        0.64141
N         -0.48237       -1.48039        1.74872
C         -0.65509       -2.80052        2.38350
C          0.00752       -0.41710        2.65179
H          0.19798       -1.56035        0.97030
H         -1.38779       -2.72073        3.18798
H         -1.00985       -3.50504        1.63143
H          0.30306       -3.13937        2.78031
H         -0.72376       -0.25662        3.44578
H          0.96573       -0.72225        3.07538
H          0.13342        0.49794        2.06519
N          0.00414        2.47587        0.69085
C          0.68824        3.29664       -0.30143
C         -0.42782        3.25604        1.84177
H         -0.81339        2.07442        0.23250
H          1.62930        3.67830        0.11387
H          0.91891        2.68831       -1.17988
H          0.08991        4.16235       -0.62833
H          0.44660        3.61275        2.39888
H         -1.03454        4.13549        1.56868
H         -1.02636        2.63048        2.51111
