38
2msa1ma1tma_71.log	Energy: -1003279.7698821
S          0.99350       -2.13852       -0.51433
O          1.01333       -3.55766       -0.80738
O          0.36984       -1.71350        0.75580
O          0.27358       -1.41638       -1.70623
H         -0.10088       -0.48677       -1.48375
C          2.63796       -1.48399       -0.53145
H          3.19306       -2.00420        0.25083
H          3.06610       -1.69922       -1.51091
H          2.59474       -0.40228       -0.32804
S         -1.93613        1.15301       -0.53250
O         -0.66987        0.89577       -1.28818
O         -1.70525        1.57249        0.85850
O         -2.88312        0.00018       -0.63729
H         -2.64053       -1.08444        0.54301
C         -2.71814        2.50332       -1.39025
H         -2.04490        3.35994       -1.35092
H         -2.89631        2.19785       -2.42108
H         -3.65654        2.72581       -0.88239
N         -2.29074       -1.68930        1.34144
H         -2.74568       -2.59856        1.30729
C         -2.49489       -0.99787        2.63721
H         -2.03042       -1.57450        3.43701
H         -2.03672       -0.01208        2.55167
H         -3.56347       -0.88653        2.82046
H         -1.27204       -1.81757        1.14945
N          2.63351        1.59612        0.45462
C          3.98907        1.84338        0.90888
H          4.30418        1.04584        1.58977
H          4.67435        1.85633        0.05522
H          4.08717        2.80774        1.44352
C          2.19518        2.60815       -0.49389
H          2.88340        2.63771       -1.34480
H          1.19812        2.35323       -0.86099
H          2.16326        3.61743       -0.04041
C          1.71056        1.48882        1.57533
H          0.69757        1.30906        1.20976
H          2.00366        0.64902        2.21406
H          1.69798        2.40836        2.19120
