29
2msa1a1ma_114.log	Energy: -929296.1873163
S          2.29558        0.78663        0.07849
O          3.39550        1.52892        0.67200
O          1.51386       -0.03530        1.08472
O          2.68034       -0.11741       -1.05504
H          2.27011       -1.56402       -0.74407
C          1.13162        1.95277       -0.60453
H          0.80122        2.61064        0.20035
H          1.65678        2.52485       -1.37000
H          0.29357        1.40304       -1.03669
S         -1.42336       -1.13856        0.02266
O         -0.77842       -2.46535        0.08179
O         -1.25280       -0.41614       -1.23484
O         -0.94569       -0.27041        1.23334
H          0.09483       -0.12146        1.19165
C         -3.14165       -1.30829        0.40214
H         -3.56311       -1.96792       -0.35747
H         -3.23384       -1.74741        1.39495
H         -3.58115       -0.30616        0.33834
N          1.96596       -2.53189       -0.36747
H          0.92873       -2.54942       -0.26793
H          2.37197       -2.62770        0.56135
H          2.28269       -3.28577       -0.97059
N         -3.35534        1.82225       -0.58912
H         -2.74638        1.38620       -1.27622
C         -2.57757        2.68590        0.29949
H         -2.03936        3.49880       -0.21044
H         -3.24307        3.13349        1.04298
H         -1.84851        2.07477        0.83772
H         -4.05114        2.35948       -1.09457
