41
2msa1dma1tma_87.log	Energy: -1027939.7472859
S          2.97572        0.45568       -0.63888
O          3.66674       -0.14649        0.49144
O          2.00715        1.51834       -0.30863
O          2.29537       -0.61971       -1.54262
H          1.34057       -0.85962       -1.18801
C          4.16430        1.11497       -1.77915
H          4.72579        1.88278       -1.24626
H          4.82175        0.30278       -2.08881
H          3.63229        1.53854       -2.63003
S         -0.73429       -1.96755        0.12146
O          0.01099       -3.20963        0.28132
O          0.00019       -0.91069       -0.67363
O         -1.19931       -1.33660        1.39846
H         -0.35025        0.03027        1.63886
C         -2.20902       -2.29914       -0.81987
H         -1.90396       -2.75942       -1.76022
H         -2.82068       -2.99008       -0.23850
H         -2.73515       -1.35573       -0.99514
N          0.30223        0.83859        1.83372
C          1.31991        0.36638        2.80003
C         -0.46379        2.01788        2.27930
H          0.78382        1.05498        0.94129
H          0.82189        0.09079        3.73039
H          1.82392       -0.50039        2.37341
H          2.05082        1.15738        2.97223
H         -0.99154        1.77424        3.20267
H          0.21983        2.85136        2.44869
H         -1.18514        2.28160        1.50567
N         -3.49220        0.95045       -0.87613
C         -4.59315        1.61790       -1.54609
H         -4.42269        1.62288       -2.62657
H         -5.52765        1.08384       -1.35035
H         -4.71891        2.66651       -1.21150
C         -3.71815        0.86433        0.55544
H         -4.66398        0.35055        0.75147
H         -2.91803        0.28370        1.02455
H         -3.76967        1.86451        1.03335
C         -2.22423        1.59355       -1.17203
H         -1.39941        1.01240       -0.75035
H         -2.07053        1.63368       -2.25400
H         -2.18050        2.63222       -0.78385
