35
2msa1ma1dma_280.log	Energy: -978615.6271771
S         -0.91843       -1.49192       -0.40231
O         -2.16071       -2.13272        0.02008
O         -0.30773       -0.64350        0.69720
O         -1.02690       -0.66268       -1.63838
H         -0.63763        0.87707       -1.26197
C          0.27762       -2.76389       -0.75334
H          0.40951       -3.36076        0.14972
H         -0.12422       -3.37699       -1.56040
H          1.21319       -2.28860       -1.05431
S          2.83624        0.27970        0.22690
O          2.25463        1.62106        0.03914
O          2.94624       -0.54920       -0.96407
O          2.07513       -0.47200        1.36980
H          1.06821       -0.60380        1.11067
C          4.42632        0.47292        0.98737
H          5.04619        1.03220        0.28621
H          4.29979        1.02092        1.92031
H          4.84102       -0.51913        1.16406
N         -0.41069        1.80757       -0.80902
H         -0.91675        1.78769        0.07931
C         -0.79387        2.95914       -1.64898
H         -0.54273        3.88921       -1.13923
H         -0.25235        2.89866       -2.59228
H         -1.86618        2.91646       -1.84086
H          0.59941        1.79674       -0.57115
N         -3.88841        0.24528        1.15308
C         -3.07413        1.02953        2.05255
C         -4.08436        0.87872       -0.13251
H         -3.47506       -0.67335        1.01574
H         -3.57196        1.98151        2.27154
H         -2.93254        0.49510        2.99490
H         -2.06074        1.25481        1.65921
H         -4.63625        1.81777       -0.00422
H         -3.13937        1.10878       -0.66510
H         -4.66760        0.22506       -0.78473
