35
2msa1a1tma_53.log	Energy: -978619.4404392
S          2.31020       -0.32744       -0.15347
O          1.49014       -0.33697       -1.35423
O          2.45163        0.93843        0.57459
O          3.75869       -0.85845       -0.51092
H          4.47650       -0.17921       -0.22000
C          1.71620       -1.57553        0.95661
H          0.67120       -1.33510        1.18554
H          1.78664       -2.53659        0.44608
H          2.33910       -1.56429        1.85098
S         -2.27315       -1.36520        0.08960
O         -3.36464       -2.17052        0.63152
O         -1.35353       -0.77295        1.09984
O         -2.74390       -0.28003       -0.85558
H         -2.23821        1.03815       -0.40728
C         -1.27285       -2.43295       -0.93741
H         -0.91108       -3.25331       -0.31535
H         -1.90651       -2.82013       -1.73579
H         -0.44349       -1.85095       -1.34371
N          5.44888        0.99732        0.27997
H          6.13570        0.75941        0.98788
H          4.75974        1.62337        0.69200
H          5.92311        1.49100       -0.46914
N         -1.96493        2.03946       -0.07013
C         -0.48864        2.09603        0.03975
H         -0.17494        1.38103        0.79706
H         -0.04693        1.80676       -0.91411
H         -0.18004        3.10853        0.31367
C         -2.48641        2.97787       -1.08334
H         -1.99244        2.77763       -2.03476
H         -3.55937        2.81728       -1.19568
H         -2.29060        4.00760       -0.77221
C         -2.61875        2.21268        1.24654
H         -3.69719        2.11142        1.11778
H         -2.26077        1.41906        1.90355
H         -2.37531        3.19862        1.65173
