37
2msa1ma1eda_497.log	Energy: -1013350.4680764
S         -2.81019       -0.33342       -0.60707
O         -3.62064       -1.16144       -1.48574
O         -1.32119       -0.59057       -0.75721
O         -3.15668       -0.42365        0.84584
H         -1.91518       -0.77200        1.75420
C         -3.04473        1.37639       -1.05770
H         -2.78753        1.48715       -2.11169
H         -4.09719        1.61174       -0.89728
H         -2.40661        2.00300       -0.43128
S          0.78650        1.74656        0.41001
O          0.93412        0.75722        1.49767
O         -0.22336        2.77410        0.61976
O          0.54240        1.00120       -0.94754
H         -0.30036        0.36712       -0.89042
C          2.37832        2.45010        0.10480
H          2.67309        2.96326        1.02098
H          3.06335        1.62767       -0.14246
H          2.27969        3.15780       -0.71867
N         -1.01554       -1.03245        2.26754
H         -0.31582       -0.29467        2.04587
C         -0.52605       -2.34700        1.78941
H          0.41357       -2.59194        2.28480
H         -1.27879       -3.10775        1.99510
H         -0.37740       -2.25932        0.71327
H         -1.19138       -1.02885        3.26953
H          4.55936       -2.30547       -0.80234
H          4.49185       -1.42600        0.74121
H          2.51143       -2.87976        0.31041
H          2.09403       -1.17767        0.58765
H          1.15565       -2.53744       -1.47331
H          1.51515       -0.96093       -1.61789
H          5.15587        0.05133       -1.00225
H          3.82256       -0.29140       -1.87021
C          4.04360       -1.50109       -0.25604
C          2.57039       -1.87267       -0.11843
N          4.17586       -0.20021       -0.92028
N          1.91788       -1.87241       -1.42822
