32
2msa1a1dma_108.log	Energy: -953955.8636787
S         -2.45069        0.92783        0.00018
O         -1.77265        1.53574        1.13082
O         -3.06615       -0.39400        0.23945
O         -1.54149        0.86689       -1.26766
H         -0.60882        0.42276       -1.11386
C         -3.72869        1.99895       -0.60648
H         -3.27985        2.96655       -0.82850
H         -4.16463        1.54995       -1.49817
H         -4.47035        2.08801        0.18770
S          1.01633       -1.44909       -0.33099
O          0.73033       -0.13774       -1.00353
O          0.19553       -2.55471       -0.89229
O          0.87985       -1.35917        1.14722
H         -0.74541       -2.06777        1.61275
C          2.72223       -1.77640       -0.69067
H          2.81930       -1.89394       -1.77018
H          3.29634       -0.91402       -0.33547
H          3.00013       -2.69482       -0.17328
N         -1.58243       -2.50307        1.17439
H         -2.01241       -3.21291        1.75845
H         -1.18557       -2.88422        0.29263
H         -2.24862       -1.74111        0.92015
N          3.18314        1.41994        0.11297
C          3.97724        2.51640       -0.41135
C          2.82572        1.59766        1.51260
H          2.33303        1.31001       -0.43314
H          4.94772        2.54324        0.09727
H          4.16253        2.36301       -1.47836
H          3.50432        3.50634       -0.27886
H          3.73107        1.55055        2.12928
H          2.32872        2.56257        1.71548
H          2.15484        0.79214        1.82114
