40
2msa1dma1eda_04.log	Energy: -1038038.8094291
S          2.65997       -0.70326       -0.03020
O          2.58182       -1.96308        0.72833
O          3.08303        0.48799        0.71852
O          1.35449       -0.45636       -0.76783
C          3.86615       -0.95299       -1.32549
H          4.82865       -1.14055       -0.84864
H          3.56123       -1.81035       -1.92585
H          3.91140       -0.05057       -1.93568
S         -2.94083        0.10930       -0.20892
O         -2.19505        0.30137        1.05566
O         -2.86949       -1.29633       -0.69894
O         -2.55171        1.10535       -1.24726
C         -4.66562        0.41263        0.12933
H         -4.99704       -0.30824        0.87682
H         -4.76636        1.43130        0.50415
H         -5.21988        0.28654       -0.80076
N         -0.47471       -2.31781        0.18003
C         -0.05617       -3.58087       -0.45962
C         -0.47286       -2.36139        1.65997
H          0.18274       -1.57129       -0.13599
H         -0.73051       -4.38175       -0.15191
H         -0.10428       -3.45506       -1.54159
H          0.96810       -3.79854       -0.15382
H         -1.12225       -3.17468        1.98957
H          0.55233       -2.51638        1.99755
H         -0.86520       -1.40966        2.01896
H         -1.41978       -2.02581       -0.16047
H         -0.82166        3.26217        0.70323
H         -0.19431        1.76501        1.40063
H          1.33384        3.72990        1.87233
H          2.12968        2.46669        0.91927
H          1.18736        5.04827       -0.09051
H          2.61225        4.28732       -0.35080
H         -0.96378        1.66747       -0.97660
H          0.41384        2.62023       -1.32188
C          0.00645        2.54849        0.67034
C          1.34954        3.23260        0.89419
N          0.00452        1.93360       -0.67974
N          1.61824        4.14016       -0.22607
H          0.59129        1.06729       -0.70179
