38
2msa1ma1tma_57.log	Energy: -1003280.8009053
S         -3.34328       -0.77110        0.13210
O         -4.41544       -1.74370        0.07498
O         -3.55017        0.57687       -0.38462
O         -2.08582       -1.42023       -0.59082
H         -1.44244       -0.71218       -0.90307
C         -2.78503       -0.62899        1.81824
H         -3.60161       -0.18334        2.38799
H         -2.56245       -1.62994        2.18838
H         -1.90177        0.01339        1.82463
S          0.05697        1.47257       -0.49052
O         -0.31677        0.32940       -1.36997
O          1.41078        1.98688       -0.77033
O         -0.10600        1.11432        0.96207
H          1.34416        0.59814        1.52241
C         -1.12219        2.76391       -0.80895
H         -1.01120        3.05800       -1.85295
H         -2.11663        2.35277       -0.62550
H         -0.89994        3.59847       -0.14383
N          2.33315        0.29904        1.75360
H          2.32837       -0.18672        2.64742
C          3.22497        1.48113        1.77325
H          4.25736        1.16116        1.92289
H          3.11037        1.98409        0.81281
H          2.92512        2.15797        2.57376
H          2.64613       -0.39090        0.97153
N          3.12972       -1.35778       -0.28018
C          3.62489       -0.46502       -1.33412
H          2.85498        0.27010       -1.57974
H          4.51136        0.06591       -0.97368
H          3.89941       -1.02776       -2.23985
C          4.16975       -2.28515        0.15795
H          5.03299       -1.72753        0.53402
H          3.78593       -2.92151        0.96108
H          4.50923       -2.93613       -0.66311
C          1.93670       -2.08236       -0.73492
H          1.53031       -2.67671        0.08893
H          1.17761       -1.36909       -1.06369
H          2.17627       -2.76002       -1.56876
