43
2msa1eda1tma_262.log	Energy: -1062666.6912798
S         -2.96762       -0.69627       -0.46819
O         -2.86349        0.33981       -1.49343
O         -2.98205       -0.27106        0.92506
O         -1.86333       -1.80066       -0.69233
H         -0.94963       -1.47460       -0.35356
C         -4.41053       -1.67889       -0.80472
H         -5.26960       -1.01229       -0.72262
H         -4.32859       -2.08157       -1.81383
H         -4.46538       -2.47540       -0.06344
S          0.99681       -1.01223        1.40176
O          1.02791       -2.38574        1.89526
O          0.37881       -0.89009        0.02374
O          2.35001       -0.35296        1.33257
H          2.84096       -0.36945       -0.09814
C          0.00883       -0.01800        2.48813
H         -1.01987       -0.37634        2.41586
H          0.40452       -0.15507        3.49544
H          0.07429        1.03195        2.18004
H          0.77029        4.28186       -0.15499
H          1.61439        2.77633        0.25882
H          0.14851        2.44078       -1.68616
H         -0.38819        1.46080       -0.31615
H         -1.69500        3.86681       -1.31470
H         -2.32398        2.38951       -0.95580
H          0.55456        3.90836        2.20284
H         -0.90048        3.50408        1.54181
C          0.62986        3.26273        0.24757
C         -0.30325        2.48888       -0.68104
N          0.08244        3.24574        1.59862
N         -1.63575        3.08181       -0.67553
N          3.21352       -0.44182       -1.11343
C          2.40970        0.48397       -1.94533
H          1.35871        0.22785       -1.81120
H          2.57678        1.50393       -1.59683
H          2.71063        0.38988       -2.99191
C          4.64330       -0.06996       -1.07382
H          4.73362        0.94790       -0.69286
H          5.16585       -0.75139       -0.40169
H          5.07116       -0.13325       -2.07755
C          3.01450       -1.85396       -1.52207
H          3.54169       -2.49884       -0.81812
H          1.94746       -2.07154       -1.47535
H          3.40163       -1.99742       -2.53404
