32
2msa2ma_141.log	Energy: -953959.3074381
S         -1.29993       -1.40347       -0.26599
O         -2.55579       -2.09096       -0.49294
O         -1.13102       -0.08898       -0.91212
O         -0.14145       -2.35434       -0.73057
H          0.76961       -1.90844       -0.65633
C         -1.03094       -1.19379        1.47637
H         -1.81908       -0.51535        1.81529
H         -1.12137       -2.17428        1.94431
H         -0.03448       -0.76833        1.62658
S          2.59149        0.01955        0.07087
O          2.19522       -1.32285       -0.43373
O          1.79693        0.43398        1.26144
O          2.58945        1.07190       -0.97916
H          1.07722        2.03862       -0.76624
C          4.27946       -0.16640        0.60473
H          4.30671       -0.93454        1.37736
H          4.87367       -0.46548       -0.25875
H          4.62000        0.79188        0.99691
N         -3.90026        0.49272        0.91884
H         -3.98340       -0.41339        0.46418
C         -3.99682        1.55918       -0.07574
H         -4.95267        1.59595       -0.61795
H         -3.85281        2.52860        0.41381
H         -3.19879        1.42289       -0.81080
H         -4.65755        0.56046        1.59035
N          0.21291        2.15817       -0.19759
H         -0.40044        1.35745       -0.46320
C         -0.45235        3.46654       -0.32905
H         -1.33967        3.48313        0.30373
H          0.23478        4.25698       -0.02798
H         -0.74590        3.61195       -1.36822
H          0.54781        1.93531        0.74891
