41
2msa1dma1tma_30.log	Energy: -1027943.2615460
S          0.03318        2.43673        0.08297
O         -0.92078        3.52468        0.04492
O         -0.27828        1.48762       -1.12965
O          0.11297        1.63736        1.31837
H          0.13765       -0.02906        1.73048
C          1.66648        3.04083       -0.26207
H          1.62379        3.59094       -1.20217
H          1.94643        3.70069        0.55994
H          2.33649        2.18000       -0.33566
S          2.13964       -1.11077       -0.69357
O          2.28009       -1.90660        0.55777
O          2.96739        0.09915       -0.75202
O          0.68032       -0.82899       -0.94137
H          0.16011        0.55786       -1.04657
C          2.65261       -2.18060       -2.02249
H          3.70277       -2.42660       -1.86375
H          2.03645       -3.07935       -2.00115
H          2.52163       -1.64117       -2.96066
N          0.21566       -0.99708        2.09851
C         -1.08753       -1.67648        1.93547
C          0.72498       -0.94258        3.48307
H          0.94167       -1.45468        1.49742
H         -1.80198       -1.24532        2.64009
H         -1.44694       -1.51113        0.91356
H         -0.96139       -2.74090        2.14100
H          0.03578       -0.36497        4.10063
H          0.81762       -1.95727        3.87324
H          1.70342       -0.46255        3.47290
N         -3.00320       -0.89545       -0.61074
C         -3.52967        0.43441       -0.34721
H         -3.73814        0.54638        0.72196
H         -2.79233        1.18756       -0.63170
H         -4.46613        0.63360       -0.90226
C         -2.58898       -1.03916       -1.99652
H         -1.86033       -0.26490       -2.24391
H         -2.11073       -2.01249       -2.14012
H         -3.44008       -0.95830       -2.69970
C         -3.95602       -1.92276       -0.23519
H         -3.51788       -2.91355       -0.39505
H         -4.20769       -1.82509        0.82663
H         -4.89748       -1.86509       -0.81443
