26
2msa2a_29.log	Energy: -904646.9114589
S         -2.23246        0.10665       -0.01975
O         -1.64804       -1.13942       -0.62985
O         -2.41810        1.19294       -0.99562
O         -1.43104        0.53465        1.16392
C         -3.83331       -0.39093        0.57509
H         -4.30315        0.47959        1.03301
H         -4.41428       -0.74003       -0.27848
H         -3.69760       -1.18794        1.30583
S          1.82619       -1.09955       -0.06648
O          2.33262        0.16284        0.48102
O          2.77989       -2.03254       -0.63069
O          0.75411       -0.70332       -1.17226
H         -0.23529       -0.96975       -0.96613
C          0.86237       -1.90663        1.19245
H          1.56791       -2.19261        1.97338
H          0.11574       -1.20134        1.56316
H          0.39123       -2.78799        0.75709
N          0.27369        2.11534       -0.40631
H         -0.21045        1.70914        0.41799
H          0.56538        1.30441       -0.96603
H         -0.42611        2.63973       -0.92902
H          1.13298        2.66350       -0.13539
N          2.79258        3.10649        0.37569
H          2.89176        3.54845        1.28404
H          3.41194        3.58973       -0.26681
H          3.11673        2.14287        0.46387
