38
2msa1ma1tma_52.log	Energy: -1003281.9256344
S          1.55672       -1.53781       -0.34279
O          0.47925       -1.97664        0.60345
O          2.77837       -1.10594        0.34791
O          1.02860       -0.54420       -1.31972
C          1.97396       -2.98130       -1.30308
H          2.33983       -3.74439       -0.61586
H          1.07544       -3.32220       -1.81779
H          2.74838       -2.70257       -2.01778
S         -2.49405       -0.23758        0.09127
O         -2.20665        0.54505       -1.11153
O         -2.11734        0.37075        1.36324
O         -1.92038       -1.68815       -0.02781
H         -0.91271       -1.76713        0.23136
C         -4.23006       -0.62075        0.10532
H         -4.76361        0.32834        0.16384
H         -4.47475       -1.14534       -0.81786
H         -4.43984       -1.23801        0.97825
N          2.04125        1.09373        2.32274
H          2.42735        0.30253        1.80697
C          0.90044        0.64110        3.12653
H          1.15420       -0.12735        3.86939
H          0.45878        1.49453        3.65182
H          0.13319        0.22924        2.46695
H          2.77961        1.43651        2.92911
N          0.70551        2.07583       -0.91979
C          2.16015        2.37118       -0.87274
H          2.52316        2.08918        0.11690
H          2.65914        1.77675       -1.63790
H          2.31020        3.43854       -1.05158
C          0.10709        2.40909       -2.23490
H          0.63303        1.84500       -3.00571
H         -0.94082        2.11214       -2.21560
H          0.21131        3.48246       -2.40973
C         -0.01285        2.72545        0.20719
H         -1.04976        2.39440        0.19802
H          0.48007        2.41990        1.13201
H          0.05267        3.80866        0.07525
H          0.63760        1.03258       -0.84077
