35
2msa1a1tma_30.log	Energy: -978626.7753472
S          1.92622       -1.16903       -0.06901
O          0.88800       -2.09400        0.50556
O          2.86163       -0.66383        0.94010
O          1.27898       -0.11047       -0.89076
C          2.86312       -2.17012       -1.20959
H          3.31358       -2.98789       -0.64679
H          2.18091       -2.55255       -1.96909
H          3.63357       -1.54325       -1.65904
S         -2.21031       -0.67248       -0.03398
O         -2.25729        0.23137       -1.18326
O         -1.75807       -0.08435        1.22775
O         -1.41122       -1.96544       -0.36138
H         -0.41531       -1.97975        0.01725
C         -3.83653       -1.35535        0.19318
H         -4.51103       -0.52607        0.40818
H         -4.12682       -1.85859       -0.72892
H         -3.80181       -2.05568        1.02711
N          0.82424        1.02217        2.56641
H          0.81327        1.15876        3.57205
H          1.66110        0.48426        2.34140
H          0.03232        0.42231        2.33844
N          0.27263        2.32055       -0.41498
C          1.57517        2.91202       -0.01487
H          1.69740        2.73662        1.05462
H          2.36560        2.40022       -0.56344
H          1.56455        3.97895       -0.24973
C          0.02439        2.44307       -1.87394
H          0.85778        1.97927       -2.40039
H         -0.89629        1.90755       -2.10500
H         -0.05816        3.50196       -2.12898
C         -0.84690        2.87194        0.38806
H         -1.76565        2.37308        0.08455
H         -0.63454        2.66361        1.43633
H         -0.90750        3.94692        0.20075
H          0.37259        1.29962       -0.24267
