42
2msa2eda_483.log	Energy: -1072746.0213689
S         -0.47514       -2.19323        0.22468
O         -1.15221       -1.57503        1.35978
O          0.76389       -2.92080        0.46103
O         -0.24906       -1.10006       -0.89728
H          0.75307       -0.84326       -1.02741
C         -1.65134       -3.24433       -0.59430
H         -2.50770       -2.62222       -0.86894
H         -1.17344       -3.68213       -1.47039
H         -1.93765       -4.01678        0.12038
S          2.91522        0.03299       -0.08554
O          3.86264        1.11451       -0.38472
O          2.10047       -0.36060       -1.28521
O          2.01400        0.36239        1.06619
H          1.63093        1.88661        0.95650
C          3.80701       -1.42454        0.39911
H          4.45468       -1.71105       -0.42976
H          4.39321       -1.18370        1.28605
H          3.06761       -2.19936        0.60969
H          0.89690        3.93262       -1.08275
H          1.53012        2.28288       -1.34070
H         -1.00535        2.41837       -1.63048
H         -0.49753        1.30117       -0.36246
H         -1.75849        3.88546        0.04312
H         -1.95836        2.44258        0.84229
H          2.25900        3.44157        0.77990
H          0.63419        3.25759        1.25670
C          0.88195        2.90174       -0.71809
C         -0.54510        2.36030       -0.63606
N          1.40736        2.89557        0.67457
N         -1.27134        3.07531        0.40996
H         -3.69415        1.80697       -1.00990
H         -5.03437        0.68548       -1.30640
H         -4.98360        1.34539        1.01917
H         -4.67216       -0.39403        0.86104
H         -3.19087        0.90848        2.40558
H         -2.37990        0.02542        1.32088
H         -3.19102       -0.22840       -2.38505
H         -2.21042       -0.10300       -1.09696
C         -4.05677        0.78198       -0.82167
C         -4.25014        0.60543        0.67939
N         -3.17842       -0.24834       -1.37110
N         -3.00010        0.83182        1.41161
