41
2msa1dma1tma_113.log	Energy: -1027937.1697469
S         -0.40354        2.02303        0.18154
O         -0.53243        1.98865       -1.27465
O          0.87828        1.43222        0.69400
O         -1.54918        1.40253        0.91856
C         -0.38438        3.73268        0.68972
H         -1.32532        4.18695        0.37865
H         -0.27209        3.77261        1.77301
H          0.45688        4.21873        0.19479
S          3.17889       -0.73894       -0.45341
O          2.36247       -1.33867       -1.50189
O          2.99296       -1.24667        0.90390
O          3.04719        0.83159       -0.47078
H          2.15404        1.12495       -0.06681
C          4.89268       -0.87212       -0.90400
H          5.12149       -1.93691       -0.95682
H          5.03005       -0.39998       -1.87638
H          5.49228       -0.38267       -0.13742
N         -3.82360       -1.15926       -1.33097
C         -3.53471        0.26107       -1.52266
C         -5.20212       -1.39706       -0.92637
H         -3.64350       -1.65624       -2.19743
H         -3.59346        0.77702       -0.55999
H         -2.51413        0.39850       -1.88711
H         -4.23109        0.74966       -2.22405
H         -5.37569       -0.93172        0.05083
H         -5.94506       -0.97948       -1.62653
H         -5.38350       -2.47124       -0.82606
N         -1.07863       -1.21640        1.25071
C         -0.02009       -1.30522        2.28734
H          0.88554       -0.83118        1.90951
H         -0.36867       -0.79004        3.18327
H          0.17408       -2.35815        2.50383
C         -2.36177       -1.80578        1.69830
H         -2.69883       -1.27845        2.59178
H         -3.08313       -1.69416        0.88530
H         -2.20817       -2.86397        1.92383
C         -0.63755       -1.79962       -0.04331
H         -1.46403       -1.70959       -0.74889
H          0.23928       -1.26432       -0.40481
H         -0.38183       -2.84990        0.11401
H         -1.26180       -0.18711        1.08815
