38
2msa2dma_59.log	Energy: -1003287.0436330
S         -0.64505        2.23233        0.17176
O          0.54512        2.28593        1.19974
O         -1.51811        3.35098        0.46584
O         -1.23283        0.88815        0.16308
C          0.14698        2.47447       -1.40354
H          0.80212        1.61861       -1.58316
H         -0.64468        2.52067       -2.15264
H          0.69610        3.41525       -1.36643
S          2.53333       -0.49816       -0.09355
O          1.41126       -0.53183       -1.07985
O          2.56240       -1.68924        0.77065
O          2.54635        0.79434        0.65538
H          1.29759        1.62985        0.98961
C          4.04112       -0.49539       -1.04516
H          4.03593        0.37435       -1.70217
H          4.87638       -0.44582       -0.34640
H          4.07744       -1.41884       -1.62341
N         -0.61560       -1.89095        0.30160
C         -0.17364       -3.23908       -0.10834
C         -0.50839       -1.65551        1.76010
H         -0.02476       -1.19854       -0.20199
H         -0.78232       -3.98855        0.40200
H         -0.29525       -3.33506       -1.18791
H          0.87909       -3.35268        0.15442
H         -1.15351       -2.36695        2.28040
H          0.53239       -1.79020        2.05781
H         -0.83054       -0.63435        1.95905
H         -1.61746       -1.74091        0.00033
N         -3.32407       -1.56695       -0.45750
C         -3.32806       -0.81221       -1.71358
C         -3.98287       -0.83643        0.63001
H         -3.80269       -2.45134       -0.60107
H         -2.74837        0.10194       -1.56585
H         -2.85220       -1.40441       -2.50002
H         -4.34260       -0.53998       -2.03932
H         -3.42438        0.08357        0.81968
H         -5.02438       -0.57497        0.39263
H         -3.97307       -1.44483        1.53870
