28
2msa1dma_03.log	Energy: -918474.1711123
S          2.15149       -0.74622       -0.15241
O          0.95077       -0.79371        0.76926
O          2.56096        0.67893       -0.33191
O          1.96266       -1.50212       -1.38553
H         -0.42214        1.48293       -0.47903
C          3.46817       -1.51263        0.77263
H          3.59059       -0.98000        1.71545
H          3.19468       -2.55343        0.94677
H          4.37585       -1.45073        0.17173
S         -2.27885       -0.50126        0.05643
O         -1.76092        0.46666       -0.92996
O         -2.65171        0.05317        1.34961
O         -1.29126       -1.69925        0.19859
H         -0.31446       -1.37678        0.40131
C         -3.66609       -1.33329       -0.67114
H         -4.44033       -0.58203       -0.82873
H         -3.34726       -1.77325       -1.61524
H         -4.00586       -2.09756        0.02740
N          0.30688        2.12964       -0.11644
C          0.06776        2.31292        1.33276
C          0.29085        3.37512       -0.90659
H          1.22617        1.62612       -0.24249
H         -0.93721        2.70765        1.48741
H          0.16040        1.33759        1.81024
H          0.81548        3.00037        1.73146
H         -0.68210        3.85805       -0.80259
H          1.07634        4.04104       -0.54618
H          0.47125        3.13004       -1.95320
