43
2msa1eda1tma_278.log	Energy: -1062666.8255856
S         -1.66182        1.51777       -0.67634
O         -0.83063        0.41283       -1.18450
O         -1.48314        2.79267       -1.41531
O         -1.42176        1.75702        0.80440
H         -0.29658        2.93019        0.79448
C         -3.35919        1.01277       -0.79937
H         -3.57854        0.86087       -1.85694
H         -3.44987        0.07506       -0.23886
H         -3.98580        1.80099       -0.38233
S          2.76737       -1.35802       -0.46137
O          3.80693       -2.36702       -0.50418
O          3.13278        0.05168       -0.62435
O          1.98850       -1.51333        0.90604
H          1.60817       -0.61054        1.24030
C          1.52293       -1.75392       -1.66799
H          1.99861       -1.69704       -2.64799
H          1.17309       -2.76741       -1.46994
H          0.71183       -1.02772       -1.58506
H          1.98213        2.62524        2.41208
H          3.02027        1.46625        1.56575
H          2.55749        3.04715       -0.09418
H          1.43037        1.73387       -0.45636
H          0.76132        4.29036        0.89323
H          0.16183        3.67855       -0.55746
H          1.10548        0.53159        2.92006
H          0.12692        0.93129        1.65619
C          2.00121        1.85632        1.62474
C          1.69368        2.49611        0.27893
N          1.09683        0.73554        1.92524
N          0.53691        3.44415        0.37438
N         -2.72701       -2.02256        0.53375
C         -1.45549       -1.84479        1.21815
H         -0.80906       -1.20390        0.61554
H         -1.62279       -1.36054        2.18577
H         -0.93376       -2.80462        1.39250
C         -3.63121       -2.84884        1.31249
H         -3.80433       -2.38800        2.28979
H         -4.59424       -2.93611        0.79990
H         -3.23445       -3.86944        1.47771
C         -2.52089       -2.56910       -0.79760
H         -3.48282       -2.66619       -1.31139
H         -1.88572       -1.89016       -1.37346
H         -2.04301       -3.56769       -0.77267
