32
2msa2ma_162.log	Energy: -953958.3486538
S         -1.88478       -1.40110        0.05121
O         -2.83067       -2.32711        0.65380
O         -1.32253       -0.39871        1.04253
O         -2.40107       -0.65158       -1.13613
H         -2.25820        0.91721       -0.97665
C         -0.47713       -2.33099       -0.53036
H         -0.04552       -2.85696        0.32203
H         -0.83901       -3.04268       -1.27287
H          0.24123       -1.63813       -0.97257
S          1.34126        1.27707        0.00562
O          0.45862        2.45959        0.01624
O          1.33299        0.50749       -1.23680
O          1.01220        0.36194        1.22752
H          0.02134       -0.00741        1.16243
C          2.99030        1.77476        0.40646
H          3.61377        0.87416        0.36889
H          3.29508        2.49006       -0.35839
H          2.97827        2.23890        1.39206
N         -2.18772        1.95823       -0.74836
H         -1.19038        2.16875       -0.54508
C         -3.02358        2.26298        0.43809
H         -2.91204        3.31357        0.70590
H         -4.06470        2.03451        0.21136
H         -2.67855        1.62186        1.24870
H         -2.47204        2.49389       -1.56522
N          3.83480       -1.25933       -0.54553
H          3.14107       -0.96391       -1.22707
C          3.25032       -2.22295        0.38699
H          2.85637       -3.13465       -0.08632
H          4.00321       -2.52005        1.12217
H          2.43330       -1.73917        0.92888
H          4.60771       -1.67356       -1.05454
