37
2msa1ma1eda_415.log	Energy: -1013355.4993281
S          0.41125        1.73547       -0.45210
O         -0.22088        0.83116       -1.45834
O          1.71655        2.25837       -0.87704
O          0.49336        1.06045        0.89338
H          2.01407        0.60729        1.24853
C         -0.71635        3.09424       -0.24213
H         -0.80908        3.59422       -1.20657
H         -1.67586        2.68295        0.07681
H         -0.30069        3.76979        0.50578
S         -3.03882       -0.45224        0.31693
O         -4.20709       -1.30787        0.28011
O         -3.19201        0.99706        0.35147
O         -2.13492       -0.85439       -0.92655
H         -1.44573       -0.14754       -1.11945
C         -2.02049       -0.92511        1.70153
H         -2.58528       -0.69837        2.60692
H         -1.82651       -1.99564        1.62924
H         -1.09976       -0.33846        1.65665
N          2.99372        0.25140        1.44450
H          3.08276        0.10992        2.44821
C          4.00982        1.20404        0.93809
H          5.00538        0.77896        1.07361
H          3.79992        1.38729       -0.11487
H          3.92549        2.14910        1.47386
H          3.09948       -0.69651        0.95051
H          2.17099       -3.93276       -0.35686
H          1.82276       -3.16454        1.20138
H         -0.03205       -2.82537       -0.45668
H          0.66489       -1.30451        0.08636
H          0.92954       -2.46262       -2.54291
H          0.82022       -0.89224       -2.06615
H          4.08442       -2.68647        0.20407
H          3.27300       -1.82249       -0.93932
C          2.03707       -2.96479        0.14546
C          0.87391       -2.20721       -0.49713
N          3.24936       -2.13386        0.03632
N          1.23968       -1.79310       -1.84873
