35
2msa1ma1dma_198.log	Energy: -978625.1555005
S         -2.26459        0.47709       -0.56852
O         -2.00091        0.66528        0.89926
O         -3.68286        0.41483       -0.90104
O         -1.47199       -0.70356       -1.07103
H         -0.99299       -1.71549       -0.04513
C         -1.54063        1.88087       -1.39213
H         -2.03055        2.77935       -1.01424
H         -0.46471        1.88647       -1.19378
H         -1.73229        1.76878       -2.45982
S          2.27349        0.20007       -0.53575
O          3.73435        0.17040       -0.50443
O          1.65553        1.53977       -0.67967
O          1.64771       -0.51541        0.64957
H          0.96529        0.69460        1.54794
C          1.75163       -0.74037       -1.96465
H          2.13597       -0.22860       -2.84775
H          2.18769       -1.73861       -1.90015
H          0.66015       -0.77386       -1.97853
N          0.30769        1.36160        2.04406
H         -0.62123        1.18996        1.57244
C          0.74132        2.77369        1.93731
H         -0.02670        3.42212        2.36006
H          1.68369        2.90463        2.46945
H          0.90303        2.98502        0.88183
H          0.22265        1.07116        3.01525
N         -0.82949       -2.57172        0.59640
C         -0.71092       -2.13295        2.00600
C          0.33387       -3.35101        0.11111
H         -1.68361       -3.11780        0.48400
H          0.24978       -1.62787        2.10346
H         -1.52603       -1.43847        2.21520
H         -0.75183       -3.00097        2.66711
H          1.21609       -2.72055        0.23214
H          0.43053       -4.27089        0.69117
H          0.17911       -3.58441       -0.94274
