40
2msa1dma1eda_498.log	Energy: -1038008.2885357
S          1.93469        1.86793        0.20881
O          1.09170        3.03705       -0.08635
O          2.65746        1.29434       -0.94481
O          1.17200        0.78567        0.93966
C          3.17533        2.41859        1.37325
H          3.76275        3.19831        0.88727
H          2.67065        2.81484        2.25466
H          3.80775        1.57100        1.63862
S         -2.63225        0.90578       -0.26194
O         -1.86424        0.57701       -1.46059
O         -3.18848       -0.16402        0.54394
O         -3.88884        1.80090       -0.75732
H         -3.70427        2.11884       -1.65302
C         -1.73147        2.02357        0.76619
H         -0.87899        1.46817        1.17132
H         -1.33666        2.83539        0.15382
H         -2.40829        2.37165        1.54643
N         -1.18151       -2.54550        0.67156
C         -0.54652       -2.21456        1.94547
C         -1.38284       -3.97825        0.49751
H         -2.07050       -2.05409        0.60843
H          0.45095       -2.66356        1.96428
H         -0.42677       -1.13092        2.02910
H         -1.11671       -2.57832        2.81336
H         -0.40478       -4.46709        0.45266
H         -1.96280       -4.43294        1.31581
H         -1.90546       -4.16477       -0.44458
H          1.30910       -2.24993       -2.49310
H          2.10667       -0.66463       -2.25980
H          3.60070       -2.35414       -1.40359
H          2.95754       -1.39928       -0.06743
H          2.12036       -4.12192       -0.77265
H          2.70404       -3.58052        0.65099
H         -0.16902       -0.52455       -1.55323
H         -0.04507       -1.79060       -0.47113
C          1.66550       -1.52492       -1.75427
C          2.69186       -2.14604       -0.82140
N          0.50344       -1.03893       -0.97942
N          2.13759       -3.32140       -0.14858
H          0.81518       -0.35748       -0.23999
