32
2msa1a1dma_110.log	Energy: -953957.3578917
S         -1.33698        1.59124       -0.15218
O         -2.41953        2.54648       -0.08475
O         -1.17255        0.66376        0.98943
O          0.00784        2.40619       -0.31991
H          0.82489        1.82631       -0.17573
C         -1.44462        0.61038       -1.62096
H         -2.25483       -0.11429       -1.47277
H         -1.64030        1.28950       -2.45090
H         -0.49305        0.08553       -1.74319
S          2.32734       -0.42786       -0.26877
O          2.08810        0.97255        0.23399
O          1.50075       -0.77158       -1.42721
O          2.22714       -1.38432        0.87704
H          1.41181       -0.63241        2.06150
C          4.03021       -0.46671       -0.79036
H          4.66142       -0.19904        0.05675
H          4.24924       -1.47817       -1.13315
H          4.14725        0.24961       -1.60370
N          0.89466        0.10527        2.62725
H          0.04195        0.36415        2.07433
H          1.50349        0.92205        2.65177
H          0.65403       -0.20555        3.56372
N         -2.86508       -2.13469       -0.57604
C         -3.58103       -1.85818        0.66110
C         -1.49779       -2.58364       -0.34638
H         -3.36792       -2.83017       -1.11597
H         -3.11138       -1.00455        1.15984
H         -4.61734       -1.59031        0.43792
H         -3.58405       -2.70874        1.36588
H         -0.93458       -1.78395        0.14344
H         -1.43334       -3.48478        0.28766
H         -1.00471       -2.78907       -1.29953
