38
2msa2dma_141.log	Energy: -1003279.2427051
S         -2.81081       -0.82051        0.46310
O         -3.10103        0.61915        0.32069
O         -1.88654       -1.17720        1.53098
O         -2.35191       -1.40760       -0.90653
H         -1.47594       -0.91012       -1.24194
C         -4.35105       -1.67245        0.67762
H         -4.77641       -1.32538        1.61962
H         -5.00272       -1.42460       -0.15946
H         -4.14563       -2.74187        0.71717
S          1.05314       -0.29597       -1.12460
O          2.02510       -0.31088       -2.20862
O         -0.37437       -0.12513       -1.61156
O          1.30987        0.74742       -0.07584
H          0.00187        1.66578        0.13981
C          1.11039       -1.86027       -0.27784
H          0.93074       -2.64593       -1.01276
H          2.10995       -1.94182        0.16058
H          0.34352       -1.86242        0.49915
N          3.96466       -0.55032        0.94186
C          4.91931       -0.39306       -0.14436
C          4.57218       -0.41829        2.25295
H          3.21942        0.13250        0.83199
H          5.63820       -1.22029       -0.12356
H          4.38953       -0.42013       -1.09979
H          5.49247        0.55026       -0.08892
H          5.29332       -1.22910        2.40753
H          5.11067        0.53657        2.39722
H          3.80461       -0.50149        3.02800
N         -0.85201        2.29150        0.17593
C         -0.88552        3.07735       -1.07627
C         -0.82698        3.09381        1.41390
H         -1.67398        1.65948        0.19762
H          0.00368        3.70760       -1.12399
H         -0.88313        2.37303       -1.90832
H         -1.78687        3.69237       -1.09725
H          0.07130        3.71301        1.42215
H         -1.71608        3.72499        1.45951
H         -0.81332        2.41433        2.26624
