44
2msa2tma_30.log	Energy: -1052600.0772183
S          1.39685       -1.97606       -0.35882
O          0.04220       -2.36996        0.02259
O          2.43838       -2.08487        0.67822
O          1.42403       -0.56390       -0.95312
C          1.89580       -3.01875       -1.71935
H          1.93184       -4.04451       -1.35088
H          1.15461       -2.92320       -2.51302
H          2.87887       -2.69843       -2.06440
S         -0.89924        1.89741       -0.74065
O         -0.24914        2.99732       -1.44450
O         -0.44223        1.64936        0.63106
O         -0.78622        0.56510       -1.57904
H          0.07193        0.06753       -1.34690
C         -2.65498        2.10872       -0.75356
H         -2.86216        3.02954       -0.20660
H         -2.97301        2.20153       -1.79237
H         -3.09758        1.22892       -0.26224
N         -3.53510       -0.68388        0.65986
C         -4.88321       -0.72559        1.19475
H         -5.00328        0.04704        1.96113
H         -5.60919       -0.53444        0.39774
H         -5.12502       -1.70399        1.65321
C         -3.35691       -1.65773       -0.40733
H         -4.06330       -1.44823       -1.21765
H         -2.33913       -1.59085       -0.79726
H         -3.52409       -2.69386       -0.05836
C         -2.54367       -0.87593        1.70961
H         -1.54148       -0.85093        1.27817
H         -2.63037       -0.07393        2.44961
H         -2.67036       -1.84681        2.22412
N          2.72178        1.07574        0.80552
C          4.10689        0.57460        0.61991
H          4.10183       -0.50149        0.79436
H          4.41643        0.78219       -0.40509
H          4.76729        1.08814        1.32220
C          2.60729        2.51690        0.46766
H          2.86000        2.65447       -0.58398
H          1.57905        2.83318        0.63240
H          3.29631        3.08130        1.10026
C          2.21160        0.78046        2.17134
H          1.16835        1.09159        2.21492
H          2.28949       -0.29519        2.33221
H          2.81516        1.33130        2.89669
H          2.12621        0.52389        0.13575
