43
2msa1eda1tma_33.log	Energy: -1062691.3806461
S          2.75285       -1.04181       -0.06773
O          3.25807        0.06859       -0.90780
O          2.58162       -2.32796       -0.76232
O          1.50560       -0.63761        0.67093
C          3.98203       -1.29511        1.20668
H          3.63915       -2.09226        1.86672
H          4.91827       -1.57406        0.72223
H          4.09477       -0.36194        1.76014
S         -2.85675        1.02481        0.24924
O         -2.16503        2.13422        0.92953
O         -3.44160       -0.00535        1.12307
O         -1.95892        0.39277       -0.80106
C         -4.20146        1.75104       -0.67383
H         -4.87555        2.22309        0.04145
H         -3.79259        2.49114       -1.36176
H         -4.71553        0.95902       -1.21881
H          1.81717        1.84018       -1.68055
H          0.59611        3.14389       -1.66636
H          2.83362        3.96440       -1.01435
H          1.65687        4.18095        0.28700
H          3.47980        1.87451        0.19164
H          3.65076        3.19142        1.18719
H         -0.31886        1.21241       -0.63662
H          1.00041        0.96330        0.33208
C          1.26344        2.53832       -1.04868
C          2.22495        3.42550       -0.27064
N          0.43706        1.71222       -0.13781
N          2.98676        2.62522        0.67398
H         -0.06029        2.25847        0.57180
N         -1.55113       -2.24628       -0.17402
C         -1.10593       -2.34248        1.24329
H         -0.11175       -1.89658        1.31495
H         -1.81963       -1.79019        1.85575
H         -1.08038       -3.39722        1.52736
C         -2.93005       -2.76522       -0.34867
H         -3.59341       -2.18511        0.29326
H         -3.22062       -2.63901       -1.39254
H         -2.94727       -3.82433       -0.08219
C         -0.59053       -2.89636       -1.10274
H         -0.90868       -2.69799       -2.12723
H          0.41479       -2.50420       -0.93530
H         -0.59681       -3.97241       -0.91423
H         -1.59945       -1.22498       -0.41197
