31
2msa1tma_25.log	Energy: -943116.5213233
S          3.72494        0.04143        0.11862
O          3.32146       -0.16666        1.49263
O          3.53113       -1.00883       -0.87180
O          5.32239        0.37919        0.11722
H          5.75659       -0.28177       -0.44041
C          3.06438        1.57604       -0.46693
H          1.97470        1.45627       -0.48135
H          3.36529        2.35767        0.23055
H          3.45759        1.75806       -1.46657
S         -0.79888       -0.27787       -0.15048
O         -0.01259        0.93668       -0.41551
O         -1.55941       -0.79084       -1.31265
O         -1.73235       -0.10135        1.03418
H         -3.10069        0.06876        0.55062
C          0.33729       -1.55048        0.36014
H          1.04202       -1.72321       -0.45457
H          0.87029       -1.20172        1.24540
H         -0.23319       -2.45360        0.57732
N         -4.11936        0.22905        0.16570
C         -4.57259       -1.06108       -0.40193
H         -3.83760       -1.37131       -1.14579
H         -4.61137       -1.80185        0.39781
H         -5.56339       -0.93862       -0.84827
C         -4.95228        0.67104        1.30152
H         -4.94632       -0.10491        2.06779
H         -4.52627        1.58525        1.71654
H         -5.97617        0.85431        0.96450
C         -3.99970        1.27075       -0.88173
H         -3.58346        2.17253       -0.43101
H         -3.31188        0.90292       -1.64424
H         -4.98520        1.47781       -1.30758
