38
2msa1ma1tma_90.log	Energy: -1003277.0860617
S          1.53196        1.88330        0.19646
O          2.62392        1.23671       -0.55861
O          1.48323        1.58646        1.62093
O          0.16729        1.60032       -0.49871
H          0.01709        0.54529       -0.60655
C          1.66058        3.63589       -0.04692
H          2.59392        3.95418        0.41801
H          1.66732        3.83779       -1.11740
H          0.80690        4.10736        0.43943
S         -0.39839       -1.85468        0.25071
O         -1.54079       -2.64463       -0.18981
O          0.04540       -0.82533       -0.77943
O          0.81352       -2.64730        0.63028
H          2.06224       -2.01521       -0.14157
C         -0.87601       -0.91568        1.68365
H         -1.68496       -0.25395        1.35777
H         -1.21340       -1.62463        2.44036
H         -0.01631       -0.34291        2.03511
N          2.81134       -1.54976       -0.74076
H          2.56844       -1.76673       -1.70584
C          4.17500       -1.99063       -0.38536
H          4.90576       -1.47343       -1.00723
H          4.35126       -1.74805        0.66194
H          4.25759       -3.06812       -0.52616
H          2.70224       -0.52126       -0.63509
N         -3.19322        0.51129       -0.19331
C         -2.93974        0.31098       -1.61074
H         -2.13714        0.97737       -1.93951
H         -2.62187       -0.71977       -1.78364
H         -3.83775        0.51881       -2.22531
C         -4.20975       -0.40887        0.28786
H         -3.87852       -1.43628        0.11344
H         -4.35548       -0.27021        1.36454
H         -5.18623       -0.25801       -0.21177
C         -3.53472        1.89094        0.09334
H         -3.67359        2.02527        1.17103
H         -2.71970        2.54505       -0.23057
H         -4.46458        2.21329       -0.41551
