22
2msa1a_29.log	Energy: -869134.3168122
S         -2.33627       -0.25819       -0.15234
O         -1.38204        0.03126       -1.20184
O         -3.68012       -0.71260       -0.45518
O         -2.48833        1.12777        0.70165
H         -3.42532        1.25091        0.91221
C         -1.58111       -1.32770        1.04648
H         -1.43880       -2.29102        0.55364
H         -0.62104       -0.89110        1.33243
H         -2.25770       -1.43142        1.89439
S          2.39877       -0.20706        0.02331
O          3.45392       -0.76888        0.84305
O          2.70241        0.85965       -0.92652
O          1.23076        0.28962        0.97254
H          0.82838        1.20075        0.60823
C          1.61523       -1.53725       -0.86877
H          2.34353       -1.91471       -1.58764
H          1.35204       -2.31858       -0.15504
H          0.73258       -1.14342       -1.37425
N          0.28960        2.47158       -0.01085
H         -0.72422        2.48519       -0.07129
H          0.67662        2.45061       -0.95111
H          0.60915        3.32091        0.44309
