37
2msa1ma1eda_369.log	Energy: -1013356.0117021
S         -0.44627        2.42815       -0.00466
O         -0.49932        3.84098       -0.34491
O          0.91084        1.91601        0.36623
O         -1.01192        1.52970       -1.09047
C         -1.47711        2.15100        1.42549
H         -1.46548        1.08785        1.67422
H         -1.06796        2.74766        2.24141
H         -2.48776        2.48278        1.18433
S         -1.86338       -1.55573       -0.15886
O         -1.58947       -1.30655        1.25517
O         -0.71742       -1.93682       -0.98794
O         -2.61883       -0.34112       -0.79592
H         -1.97887        0.48127       -0.90695
C         -3.11561       -2.80343       -0.30748
H         -2.70506       -3.71412        0.12950
H         -3.99749       -2.47316        0.24058
H         -3.33504       -2.94424       -1.36519
N          1.45355       -0.69717        1.84226
H          1.34007        0.30019        1.67138
C          2.09316       -0.92676        3.13673
H          1.54097       -0.51474        3.99287
H          2.21597       -2.00165        3.30034
H          3.09142       -0.47876        3.13318
H          0.51496       -1.09004        1.82955
H          2.73224       -0.83859       -2.82854
H          3.02244        0.85931       -2.34847
H          4.67469       -0.76812       -1.34969
H          3.78506        0.15336       -0.13262
H          3.93867       -2.52242       -0.11850
H          2.62244       -1.70169        0.47693
H          1.04368       -0.97224       -1.10383
H          1.30272        0.63520       -0.65798
C          2.74599       -0.13599       -1.99269
C          3.68775       -0.63113       -0.89819
N          1.37102       -0.05728       -1.44545
N          3.18921       -1.88708       -0.35785
H          0.67397        0.26448       -2.11935
