32
2msa1a1dma_45.log	Energy: -953969.1215858
S         -2.50919       -0.13646        0.03835
O         -3.94301       -0.04104        0.20608
O         -2.09407       -1.63434        0.27325
O         -1.64948        0.73977        0.84892
H         -0.16863        0.69434        1.99862
C         -2.08550        0.14775       -1.66530
H         -2.68565       -0.52625       -2.27663
H         -2.32946        1.18696       -1.89079
H         -1.01669       -0.04804       -1.78342
S          1.53072       -1.38640       -0.08437
O          2.48545       -0.68954        0.81254
O          1.06517       -0.54658       -1.21330
O          0.39488       -1.97354        0.69265
H         -1.08986       -1.74569        0.41407
C          2.40578       -2.76687       -0.79208
H          2.73650       -3.41227        0.02163
H          1.72209       -3.29899       -1.45356
H          3.25816       -2.37672       -1.34832
N          0.78130        1.06550        2.13843
H          0.95845        1.72066        1.25903
H          1.46669        0.29918        2.02771
H          0.86535        1.52933        3.03671
N          1.17752        2.27141       -0.21130
C          2.56608        2.65791       -0.45786
C          0.20191        3.27385       -0.63229
H          1.00500        1.39273       -0.70875
H          2.81662        3.53862        0.14291
H          3.21741        1.83062       -0.16574
H          2.75047        2.89751       -1.51422
H          0.36130        4.20099       -0.07254
H          0.27770        3.50548       -1.70427
H         -0.80275        2.90516       -0.41182
