38
2msa2dma_122.log	Energy: -1003281.4383356
S         -1.61545        1.75125        0.03498
O         -2.78030        1.24168        0.81721
O         -1.51994        1.11401       -1.29496
O         -0.33793        1.67100        0.80197
H          0.45457        0.36995        1.03391
C         -1.90439        3.49151       -0.20238
H         -2.83660        3.60635       -0.75545
H         -1.97649        3.96104        0.77852
H         -1.06543        3.89930       -0.76612
S          1.07986       -1.47161        0.01852
O          2.16319       -2.39582        0.28130
O          1.06274       -0.42981        1.20118
O         -0.26769       -2.05470       -0.12989
H         -1.86918       -1.53628       -0.04234
C          1.41893       -0.49851       -1.42343
H          2.37716        0.01605       -1.26719
H          1.47781       -1.20059       -2.25696
H          0.58936        0.19980       -1.56392
N          4.26249        0.88611       -0.50687
C          5.02775       -0.30138       -0.14634
C          3.81094        1.63836        0.65705
H          4.82280        1.48536       -1.10298
H          4.37393       -1.00766        0.37452
H          5.39271       -0.79248       -1.05264
H          5.89032       -0.08302        0.50646
H          3.13469        1.01264        1.24659
H          4.63541        1.96305        1.31481
H          3.25124        2.52027        0.33370
N         -2.88923       -1.36008        0.07531
C         -3.41619       -2.30753        1.07664
C         -3.53897       -1.42910       -1.25051
H         -2.95281       -0.37246        0.43191
H         -3.26950       -3.32797        0.71978
H         -2.87229       -2.16634        2.01046
H         -4.47836       -2.11461        1.23473
H         -3.38269       -2.42069       -1.67831
H         -4.60656       -1.23452       -1.13562
H         -3.08273       -0.66448       -1.87976
