34
2msa1a1eda_19.log	Energy: -988713.8889256
S         -2.83516       -0.13634       -0.15394
O         -2.89285       -1.50492       -0.74035
O         -2.59669        0.94557       -1.11889
O         -1.85006       -0.09884        0.98332
C         -4.43897        0.14216        0.57651
H         -5.18140        0.09670       -0.22058
H         -4.62262       -0.63522        1.31817
H         -4.43627        1.12784        1.04200
S          2.26990       -1.21725       -0.13103
O          2.26539        0.00017       -0.98558
O          1.73423       -2.42260       -0.82381
O          1.59661       -0.98227        1.17114
C          3.98435       -1.57457        0.20589
H          4.03006       -2.46114        0.83851
H          4.48534       -1.75371       -0.74555
H          4.42023       -0.71453        0.71463
N         -0.70416       -2.69047        0.35657
H         -0.55071       -1.94062        1.04217
H         -1.54944       -2.40174       -0.19458
H          0.16729       -2.72784       -0.22694
H         -0.85775       -3.57532        0.83017
H          0.24609        2.79619        1.64516
H          1.49868        1.53170        1.58132
H          2.48363        3.76626        1.02086
H          2.55901        2.65271       -0.35234
H          0.70009        4.89913       -0.07780
H          1.63419        4.48179       -1.35719
H         -0.55881        0.90356        0.42808
H         -0.31568        2.16526       -0.64752
C          0.94645        2.26691        0.99287
C          1.87689        3.23590        0.27422
N          0.16023        1.51987       -0.01158
N          1.08841        4.11388       -0.58823
H          0.81565        0.92433       -0.55992
