25
2msa1ma_84.log	Energy: -893786.0754170
S          1.26057        0.92695       -0.20615
O          2.53708        1.44536       -0.65437
O          0.66955       -0.22444       -0.88567
O          0.22337        2.14372       -0.29602
H         -0.69462        1.79586       -0.36512
C          1.33752        0.57766        1.53172
H          2.12222       -0.17915        1.64444
H          1.61001        1.49920        2.04646
H          0.36136        0.20899        1.85074
S         -2.50986       -0.32548        0.13095
O         -1.87961       -0.68116        1.38418
O         -2.29946        1.02613       -0.39401
O         -4.11286       -0.51711        0.25111
H         -4.50882        0.32574        0.51956
C         -2.18113       -1.54628       -1.10576
H         -1.10377       -1.49903       -1.27623
H         -2.48413       -2.51527       -0.70950
H         -2.73831       -1.28326       -2.00401
N          4.08251       -1.00554        0.62123
H          4.17003       -0.10965        0.14913
C          3.77579       -2.05685       -0.34868
H          4.54302       -2.19961       -1.12376
H          3.64055       -3.00716        0.17629
H          2.83251       -1.81675       -0.84645
H          4.96347       -1.19184        1.08752
