37
2msa1ma1eda_306.log	Energy: -1013358.1835626
S          1.39758       -1.25687        1.02914
O          0.92712       -1.73274       -0.28298
O          0.30201       -1.15947        2.04381
O          2.17305        0.01320        0.92569
C          2.52713       -2.46820        1.68645
H          1.98978       -3.41082        1.79091
H          3.35566       -2.57076        0.98542
H          2.88096       -2.11448        2.65488
S         -2.36153       -0.28248       -0.02870
O         -2.35253       -1.21992       -1.13724
O         -1.49213        0.89998       -0.13645
O         -2.10799       -0.99327        1.34377
H         -1.10323       -1.06991        1.58736
C         -4.02898        0.27364        0.23691
H         -4.34649        0.77043       -0.68030
H         -4.65018       -0.59943        0.43578
H         -4.03850        0.96405        1.07947
N          0.67751        2.83052        1.09037
H         -0.25490        2.42103        1.10471
C          0.70660        4.08683        1.83757
H          0.43732        3.98177        2.89739
H          1.70903        4.52022        1.78315
H          0.01488        4.79901        1.37932
H          1.28000        2.13378        1.52681
H          1.28358        1.98258       -3.22775
H          2.81099        1.48808       -2.44687
H          1.90822       -0.22065       -4.10894
H          2.11293       -0.86841       -2.47512
H         -0.25599       -0.86060       -3.89210
H         -0.12793       -1.10807       -2.26981
H          1.07181        2.28885       -0.78028
H          0.12053        1.03332       -1.29867
C          1.74982        1.25314       -2.56132
C          1.52671       -0.16986       -3.08436
N          1.09894        1.35945       -1.24049
N          0.10560       -0.47624       -3.03117
H          1.56644        0.75808       -0.52784
