34
2msa1a1eda_351.log	Energy: -988685.0364795
S         -3.13863        0.24942        0.10845
O         -4.55349        0.00595        0.30119
O         -2.49552       -0.13276       -1.14481
O         -2.37939       -0.47255        1.30833
H         -1.40975       -0.58192        1.08047
C         -2.79480        1.96819        0.41511
H         -3.31392        2.53820       -0.35719
H         -3.18952        2.21739        1.40016
H         -1.71459        2.13385        0.35352
S          0.84306       -1.33081       -0.39341
O          1.12020       -0.34794       -1.45243
O          0.15526       -0.73207        0.80145
O          2.08249       -2.02627        0.09044
H          2.57859       -1.07154        1.28938
C         -0.24655       -2.56301       -1.05942
H         -1.15765       -2.04545       -1.36828
H          0.25323       -3.02510       -1.91092
H         -0.45265       -3.29702       -0.28035
N          0.26904        2.56701       -0.84282
H         -0.28210        3.16640       -1.44879
H          0.21990        1.62141       -1.22070
H          1.23876        2.86412       -0.92406
H          1.81027        1.16228        0.71389
H          2.98011        1.84699        1.84916
H          4.82555        1.26223        0.45410
H          3.99729       -0.17535       -0.16833
H          4.23729        1.86380       -1.68496
H          2.74941        1.17179       -1.58347
H          3.48846       -0.39423        2.58194
H          1.82558       -0.24985        2.51181
C          2.79208        1.01624        1.16670
C          3.86653        0.88896        0.07975
N          2.69016       -0.24764        1.96723
N          3.45578        1.69161       -1.06359
