34
2msa1a1eda_320.log	Energy: -988690.4478262
S         -1.11608       -1.75275       -0.13412
O         -0.38794       -1.31057       -1.44715
O         -0.80436       -0.82579        0.95697
O         -0.76782       -3.15519        0.12077
H          1.03510       -2.88069        1.08702
C         -2.82354       -1.60453       -0.56375
H         -3.02048       -2.26586       -1.40770
H         -3.40815       -1.89666        0.30930
H         -2.96105       -0.54779       -0.82492
S          2.16686        0.64414       -0.23100
O          2.81946       -0.69324       -0.40754
O          1.85801        0.92043        1.17982
O          0.98675        0.78958       -1.14572
H          0.14407       -0.43384       -1.33129
C          3.33409        1.85770       -0.80233
H          4.22902        1.78262       -0.18464
H          3.56098        1.64908       -1.84754
H          2.86891        2.83757       -0.69210
N          1.65338       -2.15570        1.47732
H          1.04238       -1.41226        1.84125
H          2.21951       -1.68844        0.69897
H          2.25916       -2.52451        2.20438
H         -2.56486        3.51347       -0.44910
H         -3.86262        2.30105       -0.36914
H         -2.97949        2.78532        1.84102
H         -2.64346        1.09686        1.40891
H         -0.77906        2.59277        2.38481
H         -0.37854        1.65684        1.12513
H         -2.30343        1.81146       -2.14561
H         -1.08701        1.64963       -1.08068
C         -2.78143        2.45181       -0.25598
C         -2.38341        2.14337        1.18273
N         -2.09608        1.55112       -1.18663
N         -0.97023        2.43589        1.40255
