32
2msa1a1dma_112.log	Energy: -953957.2393928
S         -0.87617        0.60564        0.52256
O          0.37567        1.07747        1.22254
O         -0.79790       -0.80416        0.12135
O         -1.18299        1.54794       -0.59998
H          0.19423        2.30797       -0.95885
C         -2.19855        0.77212        1.69461
H         -1.95921        0.13879        2.54972
H         -2.25993        1.81863        1.99369
H         -3.12380        0.43862        1.20705
S          3.06318       -0.65213       -0.15008
O          4.46014       -1.00520       -0.03608
O          2.70001        0.41781       -1.10111
O          2.54485       -0.26052        1.28249
H          1.64386        0.22036        1.26152
C          2.10150       -2.08188       -0.57778
H          2.39038       -2.37176       -1.58869
H          2.34741       -2.86774        0.13645
H          1.04359       -1.81125       -0.52280
N          1.19655        2.67046       -0.95362
H          1.37806        3.34261       -1.69329
H          1.82526        1.83695       -1.03466
H          1.35072        3.08461       -0.03603
N         -4.59926       -0.64511       -0.11894
C         -4.04626       -1.98844        0.00346
C         -4.32523       -0.04394       -1.41796
H         -5.60054       -0.67170        0.03944
H         -2.95510       -1.93033       -0.05881
H         -4.30958       -2.40774        0.97885
H         -4.39981       -2.67984       -0.78102
H         -3.24695        0.10619       -1.52795
H         -4.67411       -0.65902       -2.26572
H         -4.80451        0.93702       -1.47844
