29
2msa1a1ma_28.log	Energy: -929309.2048747
S         -1.89933       -0.83370        0.06311
O         -2.31477       -0.21379       -1.22360
O         -1.46100        0.16318        1.06843
O         -0.89945       -1.92448       -0.12240
H          0.59238       -1.81898       -0.48255
C         -3.34919       -1.64089        0.70883
H         -4.11789       -0.88274        0.85922
H         -3.67506       -2.38374       -0.01893
H         -3.08159       -2.11484        1.65310
S          2.30988       -0.55375       -0.04925
O          3.73692       -0.76820       -0.14103
O          1.59838       -1.82717       -0.63589
O          1.75658        0.65434       -0.68374
H          0.43707        1.21936       -1.73449
C          1.79600       -0.52356        1.65404
H          2.10452       -1.46168        2.11525
H          2.30483        0.32022        2.12242
H          0.71089       -0.39163        1.68781
N         -0.47135        1.64836       -1.97765
H         -1.20548        0.90813       -1.89477
H         -0.45011        2.06190       -2.90392
H         -0.69120        2.35847       -1.20069
N         -0.97849        3.00259        0.34625
H         -1.66439        3.73611        0.49133
C          0.29236        3.33549        1.00262
H          0.19986        3.45678        2.08846
H          1.00899        2.53636        0.79697
H          0.69316        4.26176        0.58222
H         -1.35421        2.13978        0.74963
