35
2msa1ma1dma_288.log	Energy: -978615.0132658
S          2.33043       -0.06702       -0.23320
O          2.11052        0.32960        1.16972
O          1.68712        0.75733       -1.24510
O          1.96931       -1.57722       -0.41962
H          0.96730       -1.75984       -0.16401
C          4.07868       -0.12861       -0.52139
H          4.45507        0.88835       -0.40809
H          4.52640       -0.79582        0.21424
H          4.24139       -0.49171       -1.53582
S         -1.66180       -1.48792       -0.35007
O         -2.63927       -2.55617       -0.47414
O         -0.36990       -1.93294        0.31609
O         -2.14562       -0.26227        0.36248
H         -1.13278        0.06731        1.61989
C         -1.19771       -0.95004       -1.98556
H         -0.81373       -1.81410       -2.52915
H         -2.09714       -0.56773       -2.46977
H         -0.43797       -0.17017       -1.90498
N         -0.39086       -0.02385        2.36830
H         -0.33017       -1.03235        2.51942
C         -0.69278        0.73203        3.59937
H          0.08173        0.54770        4.34383
H         -0.72201        1.79419        3.35940
H         -1.66293        0.41914        3.98454
H          0.51574        0.24496        1.94151
N         -1.85238        2.62453       -0.69789
C         -0.91366        2.89740        0.37270
C         -1.26165        2.79305       -2.01529
H         -2.20385        1.67807       -0.58664
H         -0.59943        3.94692        0.33164
H         -1.41436        2.74652        1.33564
H          0.00163        2.27816        0.33598
H         -1.04508        3.85409       -2.18660
H         -0.32116        2.23382       -2.15732
H         -1.97855        2.47713       -2.77869
