42
2msa2eda_171.log	Energy: -1072756.3326798
S         -2.50593       -0.78798        0.67811
O         -2.67171        0.42504       -0.16125
O         -1.94532       -0.52468        2.01016
O         -1.74556       -1.86372       -0.06490
C         -4.13169       -1.48215        0.88520
H         -4.73756       -0.75034        1.41987
H         -4.54791       -1.68364       -0.10157
H         -4.03490       -2.40119        1.46294
S          1.60504       -1.74114       -0.92561
O          2.85619       -1.27266       -0.33815
O          0.93016       -0.83925       -1.86625
O          0.65249       -2.14734        0.23063
H         -0.41232       -1.99231        0.07711
C          1.91465       -3.27356       -1.77173
H          2.62277       -3.06758       -2.57481
H          2.33615       -3.97721       -1.05404
H          0.96929       -3.64032       -2.17202
H         -0.24106        3.48010        0.00542
H          1.16235        3.04214       -0.98947
H         -0.43175        4.26891       -2.37139
H         -0.42357        2.58675       -2.91109
H         -2.67650        3.62654       -2.56578
H         -2.50807        2.32117       -1.59563
H          0.40408        1.17003        0.40936
H         -1.08900        1.20635       -0.36039
C          0.09188        2.88400       -0.84728
C         -0.71761        3.25287       -2.08149
N         -0.09141        1.45826       -0.49631
N         -2.14578        3.25149       -1.78877
H          0.27332        0.82364       -1.21952
H          3.68497        0.61635        2.16025
H          3.69848        2.36748        2.38663
H          1.89351        1.26730        3.65681
H          1.28535        2.46917        2.50432
H          1.35694       -0.39774        1.83553
H          0.01861        0.35943        2.37558
H          3.90503        2.17941        0.14108
H          2.94026        0.88198        0.01196
C          3.13969        1.54501        1.92854
C          1.76450        1.48651        2.58701
N          3.03927        1.77860        0.48492
N          0.91038        0.51369        1.90666
