25
2msa1ma_52.log	Energy: -893793.1314347
S         -2.57900        0.31650        0.04277
O         -3.95979        0.63438        0.30870
O         -2.18399       -1.09571       -0.05971
O         -1.70506        1.00573        1.17668
H         -0.79853        0.60289        1.22609
C         -2.04299        1.13717       -1.44081
H         -2.63596        0.72926       -2.26039
H         -2.23285        2.20353       -1.31998
H         -0.98149        0.92981       -1.59220
S          1.12740       -0.94546       -0.01659
O          0.73537       -0.13367        1.14691
O          1.10295       -0.26852       -1.30679
O          0.21576       -2.24360       -0.05880
H         -0.73553       -1.94906       -0.07053
C          2.70487       -1.67582        0.28258
H          3.41675       -0.84091        0.24798
H          2.67576       -2.16190        1.25709
H          2.89793       -2.39153       -0.51669
N          3.79934        1.28773       -0.47528
H          4.68069        1.57959       -0.88343
C          3.33032        2.27300        0.50174
H          3.16760        3.27844        0.08861
H          2.39040        1.92422        0.93723
H          4.05979        2.35102        1.31247
H          3.13049        1.19862       -1.23508
