35
2msa1a1tma_88.log	Energy: -978608.4164470
S         -2.55342       -1.09278        0.09806
O         -3.00114        0.27625        0.29543
O         -1.80960       -1.74274        1.16993
O         -1.73224       -1.20697       -1.25987
H         -0.75634       -1.06450       -1.10719
C         -3.95087       -2.09366       -0.35223
H         -4.64007       -2.06860        0.49247
H         -4.41371       -1.65914       -1.23789
H         -3.60423       -3.10865       -0.54243
S          1.81005       -0.48569        0.08245
O          0.86092       -0.82576       -0.98555
O          2.83792        0.49594       -0.25924
O          2.51151       -1.80820        0.57795
H          3.49410       -1.83198        0.24683
C          0.90299        0.02985        1.50481
H          0.37184        0.94104        1.18804
H          0.20140       -0.76209        1.77231
H          1.61770        0.23306        2.30220
N          4.96993       -1.66024       -0.30991
H          5.17835       -2.21029       -1.13703
H          5.71734       -1.80056        0.36193
H          4.95295       -0.67702       -0.57487
N         -0.21669        2.67590        0.01748
C         -1.34135        3.30350        0.69168
H         -2.19613        2.62292        0.68048
H         -1.07923        3.51235        1.73412
H         -1.63579        4.25726        0.21300
C          0.97205        3.50980        0.06340
H          1.23344        3.72165        1.10556
H          1.81106        2.98138       -0.39824
H          0.82917        4.47606       -0.45759
C         -0.55842        2.31965       -1.35129
H          0.27737        1.78853       -1.81529
H         -1.43028        1.66075       -1.35006
H         -0.79313        3.21083       -1.96498
