35
2msa1ma1dma_219.log	Energy: -978619.7724482
S         -2.39895       -0.66595       -0.45978
O         -3.43669       -1.63974       -0.71859
O         -1.39306       -0.70849       -1.66340
O         -1.65294       -0.77868        0.80898
H         -0.22194       -1.23283        1.58312
C         -3.07410        0.97443       -0.51223
H         -3.51882        1.11706       -1.49735
H         -3.83966        1.02350        0.26355
H         -2.26782        1.69265       -0.31062
S          2.04611       -0.26344       -0.71415
O          1.94913       -1.72512       -0.81907
O          2.29866        0.20372        0.68446
O          0.86256        0.44758       -1.30218
H         -0.49034       -0.27459       -1.47966
C          3.44344        0.27934       -1.67333
H          3.27364       -0.01590       -2.70869
H          3.52047        1.36302       -1.58590
H          4.33355       -0.20555       -1.27252
N          0.65582       -1.36554        2.12796
H          1.36409       -0.71840        1.68133
C          1.11356       -2.77547        2.06677
H          2.02252       -2.88261        2.65834
H          0.33042       -3.42914        2.45013
H          1.32753       -2.99885        1.02177
H          0.47760       -1.05673        3.08107
N         -0.36704        2.55200        0.53354
C         -0.39091        2.19417        1.94084
C          0.26357        3.83991        0.29536
H          0.14052        1.83952        0.01309
H         -0.97106        2.93665        2.50091
H         -0.89013        1.22698        2.05582
H          0.61493        2.13840        2.39487
H         -0.34887        4.63917        0.72833
H          1.27573        3.91722        0.72983
H          0.33714        4.01693       -0.78086
