30
2msa1eda_03.log	Energy: -953210.1875502
S          2.17964        0.77990        0.07738
O          1.72651        1.99923        0.80256
O          1.19758        0.44746       -1.01684
O          2.47207       -0.37421        0.93549
C          3.68651        1.23411       -0.75715
H          3.47110        2.06492       -1.42871
H          4.41384        1.52607        0.00052
H          4.03764        0.36499       -1.31357
S         -0.81941       -2.21274       -0.04551
O         -1.73672       -3.25129       -0.46060
O         -1.39376       -1.01333        0.59284
O          0.01555       -1.77648       -1.30330
H          0.53201       -0.90401       -1.15568
C          0.39685       -2.87708        1.06495
H         -0.12545       -3.16354        1.97853
H          0.84071       -3.74892        0.58417
H          1.14754       -2.10472        1.25460
H         -1.29156        3.17652       -0.70974
H         -0.92324        1.55576       -1.33583
H         -3.37529        2.10214       -1.61729
H         -3.12461        0.72882       -0.53182
H         -3.87530        3.43675        0.27557
H         -4.49545        2.00270        0.75936
H          0.03035        1.96723        0.87495
H         -1.58705        2.11039        1.45918
C         -1.49027        2.10842       -0.58608
C         -2.98325        1.80875       -0.63543
N         -0.97640        1.70359        0.74523
N         -3.64012        2.47427        0.49217
H         -1.03208        0.66898        0.81535
