26
2msa2a_37.log	Energy: -904641.8215037
S         -2.01582        0.19976       -0.03834
O         -0.96866        1.13611       -0.54366
O         -1.65054       -0.40335        1.26651
O         -2.37882       -0.83817       -1.04391
H         -1.53059       -2.26648       -0.58452
C         -3.46337        1.20320        0.21107
H         -3.22203        1.96445        0.95287
H         -3.72822        1.65900       -0.74282
H         -4.26415        0.55555        0.56770
S          2.14658       -0.44122       -0.04661
O          3.56672       -0.36896       -0.30140
O          1.55013       -1.79174        0.01888
O          1.42025        0.38189       -1.18287
H          0.45902        0.60247       -0.96114
C          1.72172        0.41074        1.45215
H          2.32738       -0.03482        2.24252
H          1.94101        1.47360        1.30960
H          0.65539        0.26158        1.63959
N         -0.93512       -2.82117        0.07858
H         -1.00082       -3.82414       -0.06493
H         -1.26503       -2.53548        1.00472
H          0.05305       -2.47784       -0.00596
N          1.26413        3.31712        0.06434
H          1.21212        4.32398        0.17053
H          0.32142        2.96000       -0.07139
H          1.78322        3.11993       -0.78558
