32
2msa2ma_08.log	Energy: -953980.0621130
S         -2.83404       -0.01121       -0.02958
O         -2.92401        1.19703        0.80220
O         -2.97239       -1.30635        0.65135
O         -1.55112        0.01261       -0.85531
C         -4.14451        0.09006       -1.23888
H         -5.09234        0.06432       -0.70033
H         -4.04088        1.02810       -1.78429
H         -4.06470       -0.76190       -1.91411
S          2.77156       -0.00503       -0.20975
O          2.13145        0.00382        1.12444
O          2.46791        1.23064       -0.98809
O          2.47479       -1.25317       -0.97010
C          4.53721        0.00184        0.03445
H          4.79974        0.90510        0.58534
H          4.80462       -0.88943        0.60226
H          5.01586       -0.00610       -0.94473
N          0.01851        2.16197       -0.23890
H         -0.31352        2.96503       -0.76744
H         -0.61099        1.35312       -0.47102
C          0.00765        2.42754        1.22234
H          0.50694        1.58834        1.70575
H          0.56045        3.34557        1.42345
H         -1.02718        2.50221        1.55456
H          0.98190        1.90051       -0.56909
N          0.00705       -2.15689       -0.23970
H         -0.61152       -1.34494       -0.48545
H         -0.33428       -2.96309       -0.75749
C         -0.01693       -2.40042        1.22529
H          0.53572       -3.31420        1.44513
H          0.47721       -1.55375        1.70106
H         -1.05529       -2.47378        1.54692
H          0.97537       -1.91159       -0.56620
