40
2msa1dma1eda_542.log	Energy: -1038007.1771411
S          0.89204       -1.41764       -0.58765
O          1.17051       -0.43522       -1.65107
O          0.24712       -0.78279        0.60850
O          2.11957       -2.15489       -0.13628
H          2.68097       -1.29194        1.08552
C         -0.22582       -2.63728       -1.22759
H         -1.16332       -2.13357       -1.46989
H          0.23742       -3.07889       -2.11003
H         -0.38236       -3.38811       -0.45271
S         -3.36337       -0.27141        0.30524
O         -4.56228       -0.80945        0.91673
O         -2.85690       -0.85424       -0.93362
O         -2.20869       -0.33181        1.40495
H         -1.31578       -0.51427        0.99620
C         -3.56561        1.47621        0.06209
H         -4.35079        1.60096       -0.68518
H         -3.86891        1.91549        1.01279
H         -2.60674        1.87882       -0.28786
N         -0.41138        2.18926       -0.49598
C         -0.10618        2.59901        0.86185
C          0.10669        3.09477       -1.50226
H         -0.06254        1.25033       -0.66417
H         -0.60114        3.55375        1.07692
H         -0.49198        1.85408        1.56313
H          0.97567        2.72866        1.04629
H         -0.41566        4.05678       -1.44369
H          1.18847        3.30254       -1.39536
H         -0.06273        2.67271       -2.49560
H          4.71843        0.74111        1.91669
H          5.05261       -0.88905        1.27142
H          5.14309        0.96105       -0.50194
H          3.99399       -0.33332       -0.86254
H          3.35340        2.39539       -0.36174
H          2.38644        1.16178       -0.90958
H          2.98510       -0.73211        2.67914
H          2.36719        0.28681        1.49692
C          4.36858       -0.03888        1.23558
C          4.19842        0.50452       -0.18954
N          3.02756       -0.48358        1.69425
N          3.07657        1.43472       -0.21267
