38
2msa1ma1tma_21.log	Energy: -1003286.1977126
S         -0.92556        2.30183       -0.17527
O         -1.12981        3.71156        0.11915
O         -1.53558        1.39014        0.87914
O          0.49406        1.89213       -0.38781
H          0.84690        0.69289        0.73453
C         -1.78337        1.90765       -1.68954
H         -2.84139        2.12943       -1.54543
H         -1.36604        2.53918       -2.47431
H         -1.62881        0.85094       -1.91605
S         -1.72912       -1.80856       -0.04407
O         -0.75562       -2.10160        1.02236
O         -1.16421       -1.51048       -1.35635
O         -2.71196       -0.69514        0.41284
H         -2.20507        0.24347        0.59962
C         -2.83918       -3.18784       -0.16736
H         -2.24544       -4.04908       -0.47481
H         -3.29195       -3.35450        0.80936
H         -3.59362       -2.95056       -0.91684
N          1.18056       -0.05126        1.39228
H          0.49280       -0.82034        1.35538
C          1.31770        0.50516        2.75040
H          1.63156       -0.27640        3.44294
H          2.05928        1.30422        2.73400
H          0.35522        0.91412        3.05851
H          2.08284       -0.38575        0.96204
N          3.27690       -0.61470       -0.36336
C          3.84138        0.71564       -0.58459
H          3.03362        1.45045       -0.65096
H          4.49489        0.98291        0.25139
H          4.43202        0.76033       -1.51493
C          4.32113       -1.61781       -0.19860
H          4.96117       -1.35247        0.64787
H          3.86715       -2.59260        0.00006
H          4.95362       -1.70590       -1.09848
C          2.36104       -0.97365       -1.44854
H          1.88518       -1.93386       -1.23261
H          1.57630       -0.21713       -1.53393
H          2.88530       -1.04783       -2.41553
