34
2msa1a1eda_185.log	Energy: -988699.7185758
S         -2.04954        1.24355        0.11549
O         -0.94347        1.93486        0.80334
O         -2.76363        0.24487        0.90109
O         -1.54881        0.65140       -1.23309
H         -0.78946       -0.09949       -1.06211
C         -3.18726        2.47226       -0.47272
H         -3.60354        2.96615        0.40564
H         -2.64203        3.17929       -1.09684
H         -3.96956        1.96709       -1.03856
S          0.07884       -2.36276       -0.21444
O          0.91660       -3.32580       -0.91522
O          0.22095       -0.95977       -0.78802
O          0.27338       -2.30249        1.26025
H          0.62041       -0.79463        1.84001
C         -1.63207       -2.79937       -0.47047
H         -1.82188       -2.81573       -1.54424
H         -1.78165       -3.79060       -0.04152
H         -2.26040       -2.06165        0.03245
N          0.89430        0.18091        2.12938
H          0.21428        0.84874        1.73066
H          1.86617        0.38926        1.73665
H          0.89069        0.25412        3.14240
H          4.09005        0.52845       -1.07752
H          2.69273       -0.49553       -0.68142
H          1.99140        1.38446       -2.08114
H          1.24238        1.47578       -0.49326
H          3.44109        3.15755       -1.43036
H          2.02789        3.59797       -0.73655
H          4.11833        0.07024        1.25775
H          3.67262        1.64264        1.06405
C          3.14658        0.48404       -0.51358
C          2.19745        1.56296       -1.01739
N          3.37332        0.67718        0.92989
N          2.75283        2.89040       -0.73424
