30
2msa1eda_36.log	Energy: -953206.8291007
S          1.20287        1.67370       -0.04279
O          0.47984        1.76106       -1.31459
O          2.30484        0.66333       -0.02702
O          0.29798        1.43137        1.13479
C          1.97717        3.24995        0.25190
H          1.19580        4.00984        0.26443
H          2.49379        3.20786        1.21048
H          2.68038        3.43355       -0.56066
S         -2.48529       -0.29765       -0.00215
O         -3.81982       -0.76871        0.29178
O         -1.36847       -1.25177        0.14524
O         -2.20217        0.95597        0.90624
H         -1.20987        1.18290        0.95741
C         -2.41285        0.34748       -1.65419
H         -2.58101       -0.48825       -2.33442
H         -3.20462        1.09041       -1.75167
H         -1.42643        0.79481       -1.80164
H          2.52393       -2.96692        1.35287
H          0.82076       -3.48862        1.33209
H          1.77001       -3.99844       -0.83114
H          0.62079       -2.68681       -1.03628
H          2.45877       -1.15407       -1.25540
H          3.54972       -2.36614       -1.00090
H          1.11973       -1.25256        2.28254
H          1.70799       -0.66896        0.83312
C          1.54283       -2.78800        0.90412
C          1.60377       -2.93610       -0.62263
N          1.11318       -1.41352        1.27736
N          2.60870       -2.15734       -1.31248
H          0.14285       -1.23932        0.93733
