32
2msa1a1dma_86.log	Energy: -953959.1278574
S          2.31049       -0.73080       -0.26069
O          3.41295       -1.66353       -0.35403
O          1.59988       -0.63493        1.03203
O          1.28231       -1.10459       -1.38904
H          0.36123       -0.68328       -1.28912
C          2.83668        0.90836       -0.67449
H          3.60323        1.18697        0.05019
H          3.25238        0.87690       -1.68178
H          1.95816        1.56674       -0.59039
S         -2.07593       -0.57773       -0.26075
O         -1.08063       -0.11031       -1.26784
O         -1.98673        0.18630        1.01186
O         -2.01188       -2.04681       -0.02964
H         -1.03364       -2.29120        1.40875
C         -3.66759       -0.23495       -0.97625
H         -3.73573        0.83948       -1.14791
H         -3.74142       -0.78302       -1.91540
H         -4.43215       -0.56363       -0.27248
N         -0.50202       -1.84470        2.19159
H         -0.39632       -2.44372        3.00406
H         -1.04866       -0.99499        2.38572
H          0.41770       -1.52402        1.80647
N          0.16342        2.44413        0.22945
C         -0.65573        3.24438       -0.66505
C          0.57607        3.16330        1.42186
H         -0.36575        1.61982        0.50131
H         -0.06180        4.07143       -1.07144
H         -0.98849        2.61874       -1.49715
H         -1.54394        3.67878       -0.17312
H          1.22669        4.00038        1.14192
H         -0.26798        3.57487        2.00247
H          1.15001        2.49464        2.07051
