25
2msa1ma_69.log	Energy: -893786.7056750
S         -2.20720       -0.29537        0.08620
O         -2.19013        1.13715       -0.17361
O         -1.59968       -0.77657        1.32019
O         -1.58705       -1.08247       -1.15384
H         -0.60238       -0.95736       -1.16696
C         -3.87234       -0.89675       -0.03605
H         -4.43301       -0.41718        0.76695
H         -4.27269       -0.61398       -1.00906
H         -3.85928       -1.97844        0.09234
S          2.09717       -0.73946       -0.09602
O          1.04196       -0.59786       -1.09912
O          3.44159       -0.33557       -0.46044
O          2.15679       -2.30875        0.31876
H          2.99170       -2.67110       -0.01231
C          1.56665       -0.00858        1.41746
H          1.39448        1.04908        1.16752
H          0.62755       -0.48270        1.71075
H          2.35486       -0.14993        2.15631
N          0.63980        2.58200       -0.22978
H          1.05021        2.41300       -1.14252
C          0.66905        4.00622        0.09424
H          0.13745        4.64817       -0.62315
H          0.21739        4.15884        1.07859
H          1.70674        4.34768        0.15273
H         -0.31913        2.24441       -0.27509
