37
2msa1ma1eda_326.log	Energy: -1013356.2253503
S          1.23313       -2.10696        0.15872
O          0.42796       -2.70303       -0.94500
O          0.70363       -2.36557        1.49921
O          1.46137       -0.63682       -0.09854
C          2.84918       -2.84576        0.03272
H          2.73469       -3.91908        0.18558
H          3.25077       -2.63794       -0.95907
H          3.47934       -2.41203        0.80927
S         -0.61567        2.14611        0.13923
O         -1.76056        2.64785        0.87896
O         -0.88466        1.45613       -1.13374
O          0.17473        1.17508        1.09008
H          0.70199        0.43257        0.60299
C          0.53019        3.45660       -0.18143
H          0.03853        4.15095       -0.86406
H          0.74647        3.94102        0.77114
H          1.43203        3.01371       -0.62788
N          3.11032        1.65378       -1.02808
H          2.62951        0.76185       -1.12076
C          3.84300        1.68640        0.23560
H          4.60865        0.90383        0.34127
H          4.33123        2.65885        0.35374
H          3.13208        1.56897        1.05831
H          3.74040        1.75297       -1.81637
H         -2.48042       -2.28463        0.64158
H         -1.56169       -0.84303        1.08096
H         -4.02662       -0.51379        1.49091
H         -3.40226        0.62611        0.30132
H         -5.05517       -1.72063       -0.26801
H         -5.20233       -0.19280       -0.83066
H         -1.00969       -1.83831       -1.12105
H         -2.59137       -1.35377       -1.61718
C         -2.32377       -1.22994        0.40250
C         -3.62036       -0.43173        0.47557
N         -1.80392       -1.16458       -0.98940
N         -4.53199       -0.90564       -0.57007
H         -1.44555       -0.20868       -1.18405
