38
2msa2dma_91.log	Energy: -1003284.8113998
S          0.62217        1.77536       -0.02817
O          1.93393        2.35800        0.26312
O         -0.02879        1.21418        1.21494
O          0.63608        0.74272       -1.10264
H          0.64365       -0.85959       -0.53552
C         -0.45965        3.06713       -0.60348
H         -0.53241        3.81938        0.18237
H         -0.01713        3.49295       -1.50435
H         -1.43053        2.61899       -0.82271
S         -2.84183       -0.34146       -0.09183
O         -2.15526       -1.55045       -0.55093
O         -2.92368        0.78517       -1.01068
O         -2.25597        0.11131        1.29250
H         -1.32977        0.59861        1.20883
C         -4.48298       -0.79371        0.42241
H         -5.00193       -1.15486       -0.46596
H         -4.41029       -1.57903        1.17413
H         -4.97346        0.09219        0.82439
N          3.72161       -1.11147        0.08501
C          3.78558       -0.36247        1.34663
C          4.02848       -0.26334       -1.07398
H          4.38987       -1.87567        0.12156
H          3.05239        0.44832        1.31942
H          3.55186       -1.03004        2.18078
H          4.77472        0.08593        1.51626
H          3.26849        0.51788       -1.15159
H          5.01381        0.21630       -0.98967
H          4.00481       -0.86713       -1.98545
N          1.01295       -1.77338       -0.18309
C          0.73262       -2.83172       -1.17108
C          0.48991       -2.04757        1.17173
H          2.06108       -1.60658       -0.11072
H         -0.34702       -2.93370       -1.28169
H          1.17324       -2.54145       -2.12569
H          1.17408       -3.77105       -0.83053
H         -0.57894       -2.24761        1.10344
H          1.01694       -2.90835        1.58990
H          0.65503       -1.16119        1.78558
