40
2msa1dma1eda_291.log	Energy: -1038020.7698496
S          0.75050        1.09438        1.26494
O          1.45175       -0.16904        1.61464
O         -0.50209        1.30399        2.01054
O          0.53236        1.18262       -0.22619
H         -0.83199        1.30316       -0.90941
C          1.88797        2.40555        1.64521
H          2.78419        2.23303        1.04372
H          1.41155        3.35195        1.38812
H          2.10670        2.35897        2.71222
S         -2.77305        0.32063       -0.98985
O         -3.82356        0.30577       -1.98319
O         -1.69792        1.37618       -1.44136
O         -2.10331       -0.95095       -0.67497
H         -0.71404       -1.73835        0.09880
C         -3.39406        0.98879        0.53638
H         -3.86176        1.94789        0.31361
H         -4.13206        0.28269        0.91964
H         -2.55339        1.10993        1.22512
N         -0.18651       -2.19948        0.85963
C          0.25804       -3.53980        0.42757
C         -1.04410       -2.17696        2.06553
H          0.62703       -1.56973        1.03963
H         -0.61517       -4.14041        0.16758
H          0.90643       -3.39639       -0.43757
H          0.80523       -4.01260        1.24481
H         -1.97237       -2.70932        1.85496
H         -0.51125       -2.65121        2.89082
H         -1.24915       -1.13445        2.31373
H          3.78351       -0.11245       -2.87132
H          4.99075       -0.09677       -1.57687
H          3.70741       -2.09313       -1.33284
H          3.25129       -1.01328       -0.00602
H          1.25609       -0.47969       -1.17927
H          1.66728       -1.43913       -2.43965
H          3.88539        2.04868       -1.80577
H          2.46025        1.38852       -1.34624
C          3.91728       -0.00297       -1.78015
C          3.18940       -1.15783       -1.08952
N          3.47059        1.29335       -1.27096
N          1.77504       -1.31780       -1.43654
