43
2msa1eda1tma_137.log	Energy: -1062684.1427887
S         -1.35847       -1.69920       -0.76147
O         -1.03933       -3.13357       -0.79761
O         -0.70285       -0.97297        0.36071
O         -2.83682       -1.41721       -0.76716
H         -3.24446       -0.10988       -0.10435
C         -0.73633       -0.96838       -2.26415
H          0.34231       -1.12361       -2.30275
H         -1.24005       -1.44632       -3.10493
H         -0.92427        0.10619       -2.23035
S          1.52799        1.59937       -0.62165
O          0.28817        2.10213       -1.25753
O          2.08887        0.38490       -1.26736
O          1.40771        1.42483        0.85132
H          1.35672       -0.74235        0.66771
C          2.75019        2.88602       -0.86627
H          2.88058        3.03390       -1.93863
H          2.38712        3.79992       -0.39490
H          3.68658        2.56623       -0.40738
H         -3.79924        1.62613        2.27535
H         -2.89715        0.08506        2.20356
H         -1.43873        2.23821        2.45185
H         -0.99096        1.12161        1.16136
H         -2.09325        3.75538        0.82595
H         -1.16981        2.81886       -0.18904
H         -4.65438        0.70486        0.36004
H         -3.34814        1.62817       -0.18465
C         -3.07226        1.03979        1.70559
C         -1.76266        1.81732        1.49415
N         -3.64160        0.78587        0.35635
N         -1.96556        2.82324        0.45291
N          1.98154       -1.48088        1.04267
C          2.11928       -2.51704       -0.01493
H          1.14030       -2.95952       -0.20967
H          2.49366       -2.02276       -0.91101
H          2.82333       -3.27592        0.33485
C          3.28813       -0.85296        1.35592
H          3.69081       -0.44240        0.43099
H          3.12346       -0.04307        2.06459
H          3.95153       -1.61566        1.77066
C          1.32198       -2.01994        2.25637
H          1.18792       -1.20339        2.96647
H          0.35048       -2.41566        1.96540
H          1.95677       -2.79815        2.68610
