40
2msa1dma1eda_310.log	Energy: -1038020.9368864
S         -2.25365       -1.06643        0.36229
O         -1.27167       -1.51088        1.36818
O         -1.94840       -1.46420       -1.03104
O         -2.52702        0.41248        0.43286
H         -1.79734        0.93870       -1.09372
C         -3.80295       -1.84975        0.78971
H         -3.66029       -2.92885        0.72505
H         -4.06587       -1.55759        1.80670
H         -4.56358       -1.51979        0.08204
S          2.01882       -0.84120       -1.07697
O          2.35688       -0.63725       -2.48364
O          1.11101        0.22015       -0.51588
O          3.19621       -0.95851       -0.14956
H          2.84596       -0.17358        1.14834
C          1.13248       -2.37827       -0.92836
H          0.21896       -2.30905       -1.52001
H          1.78907       -3.17413       -1.28129
H          0.85453       -2.51505        0.11756
N          2.58116        0.31388        2.07029
C          1.38047       -0.36223        2.62598
C          2.38811        1.76435        1.82656
H          3.37308        0.17583        2.69653
H          0.57356       -0.31373        1.89288
H          1.62143       -1.40955        2.81015
H          1.08595        0.12563        3.55705
H          1.52381        1.89517        1.17209
H          2.22177        2.26913        2.78089
H          3.28248        2.15763        1.34204
H         -2.47370        3.21640       -0.42254
H         -1.17442        4.41470       -0.48870
H         -1.35916        3.12611       -2.57826
H          0.23741        2.92233       -1.81747
H         -1.11886        0.83342       -2.62042
H         -0.14779        0.77626       -1.26060
H         -0.92541        3.38910        1.54912
H         -1.16349        1.88477        0.96919
C         -1.37964        3.34092       -0.43388
C         -0.83049        2.71842       -1.71310
N         -0.73505        2.78805        0.75444
N         -1.00107        1.24138       -1.69624
