34
2msa1a1eda_270.log	Energy: -988696.2352896
S          3.09372       -0.74810        0.24541
O          4.17650       -1.55629        0.76692
O          3.29287        0.67888        0.01570
O          1.85717       -0.94671        1.22804
H          1.18797       -0.20993        1.11152
C          2.50148       -1.47158       -1.27002
H          3.30258       -1.37756       -2.00442
H          2.27656       -2.52091       -1.07913
H          1.61463       -0.91712       -1.58397
S         -0.29266        1.51814       -0.36776
O         -0.10493        0.54511       -1.45672
O          0.02853        0.92011        0.98595
O         -1.64547        2.13673       -0.32638
H         -2.59383        1.56874        1.15754
C          0.89187        2.82030       -0.61012
H          1.88358        2.36698       -0.55382
H          0.70698        3.25994       -1.59050
H          0.75408        3.55920        0.17933
N         -2.51669        0.92056        1.96350
H         -2.96885       -0.03084        1.71262
H         -2.89546        1.32345        2.81483
H         -1.48826        0.79438        2.01697
H         -4.63600       -2.40319       -0.41470
H         -5.06045       -0.73109       -0.00887
H         -3.78743       -0.89743       -2.15864
H         -2.95743        0.09983       -0.97280
H         -2.12624       -2.51355       -1.88496
H         -1.24167       -1.19244       -1.43663
H         -4.00802       -2.08738        1.82877
H         -2.62511       -2.02568        0.93630
C         -4.22324       -1.42892       -0.11851
C         -3.25837       -0.92888       -1.19672
N         -3.49223       -1.52689        1.15727
N         -2.05714       -1.75856       -1.21330
