38
2msa1ma1tma_105.log	Energy: -1003277.5252556
S          0.10701        1.90932       -0.41007
O          0.62389        3.23856       -0.10162
O         -0.38978        1.19869        0.83424
O          1.07846        1.01674       -1.12285
H          2.06807        0.22373       -0.24792
C         -1.29119        2.04147       -1.49722
H         -2.09972        2.53234       -0.94937
H         -0.97908        2.62188       -2.36580
H         -1.57153        1.02643       -1.78425
S         -0.79520       -2.06088       -0.32342
O          0.57837       -2.53886       -0.49124
O         -1.42050       -1.35720       -1.43422
O         -0.89654       -1.21562        0.99505
H         -0.69401       -0.19164        0.85303
C         -1.81107       -3.44709        0.13293
H         -1.79438       -4.14419       -0.70542
H         -1.39120       -3.90836        1.02635
H         -2.82214       -3.08354        0.31471
N         -3.38650        1.91589        1.05899
H         -2.42795        1.85127        1.39161
C         -3.87797        0.59775        0.67002
H         -3.89724       -0.14573        1.48204
H         -4.89084        0.69061        0.26601
H         -3.24362        0.19796       -0.12659
H         -3.95018        2.31117        1.80271
N          2.88669       -0.14840        0.33485
C          2.34512       -0.67234        1.61249
H          1.73697        0.10624        2.07494
H          1.71960       -1.53649        1.39209
H          3.17616       -0.95210        2.26506
C          3.55104       -1.20506       -0.46341
H          2.81753       -1.98590       -0.66547
H          3.89161       -0.76837       -1.40285
H          4.40196       -1.60181        0.09612
C          3.75233        1.03485        0.55093
H          4.06132        1.42562       -0.41862
H          3.17312        1.80082        1.06856
H          4.62452        0.74657        1.14266
