32
2msa2ma_176.log	Energy: -953957.8191488
S          2.61011       -0.10648       -0.32411
O          2.51274       -1.45391       -0.86763
O          2.33551        0.02201        1.12057
O          1.74114        0.90689       -1.12853
H          0.71974        0.79248       -0.91980
C          4.22365        0.56167       -0.63150
H          4.39914        0.54288       -1.70683
H          4.25442        1.57858       -0.24209
H          4.93639       -0.07881       -0.11156
S         -1.50635        1.32503        0.29184
O         -0.64919        0.45932       -0.61814
O         -0.83110        2.55179        0.70067
O         -2.00254        0.47124        1.41624
H         -0.80827       -0.48876        1.92516
C         -2.93911        1.74509       -0.67402
H         -2.60797        2.40211       -1.47893
H         -3.36875        0.82518       -1.07867
H         -3.63461        2.26714       -0.01634
N          0.01681       -1.14290        2.06918
H          0.88077       -0.61839        1.81589
C         -0.11471       -2.31664        1.17171
H          0.78932       -2.92227        1.22376
H         -0.99126       -2.89512        1.46204
H         -0.24037       -1.93626        0.15846
H          0.07399       -1.41119        3.04871
N         -2.84116       -1.39746       -1.82392
H         -2.84635       -1.94483       -2.67648
C         -3.22686       -2.20233       -0.67084
H         -2.62139       -3.11056       -0.51641
H         -3.15247       -1.58524        0.23019
H         -4.27108       -2.51288       -0.77314
H         -1.91148       -1.00394       -1.70187
