37
2msa1ma1eda_13.log	Energy: -1013376.6763294
S          2.89791        0.14790       -0.24539
O          2.53613        1.40471       -0.95466
O          2.75834       -1.07235       -1.06292
O          2.15922        0.02445        1.05471
C          4.62277        0.31831        0.17432
H          5.18244        0.42373       -0.75525
H          4.73951        1.20499        0.79729
H          4.93461       -0.57703        0.71234
S         -2.58521       -0.88127       -0.08326
O         -1.43441       -0.73442       -1.04076
O         -3.14841        0.41764        0.32193
O         -2.20473       -1.76680        1.04967
C         -3.85946       -1.74100       -0.98790
H         -4.15401       -1.11971       -1.83382
H         -3.45881       -2.69513       -1.33041
H         -4.70021       -1.89574       -0.31136
N          0.49919       -2.10467        0.54741
H          0.32553       -1.88617       -0.43860
H          1.06557       -1.29866        0.90147
C          1.23914       -3.37139        0.70787
H          1.41291       -3.54793        1.76914
H          0.65398       -4.19089        0.29058
H          2.18865       -3.27590        0.18160
H         -0.44655       -2.10248        0.97909
H         -0.97117        1.20265        1.17109
H          0.60998        2.00215        1.22911
H         -1.41755        3.43294        1.93469
H         -0.42219        4.16420        0.66574
H         -2.86023        2.61593        0.09813
H         -2.67638        4.25258       -0.08072
H         -0.57592        0.76576       -0.93294
H         -0.73386        2.38545       -1.23357
C         -0.36592        2.00290        0.74420
C         -1.10175        3.33313        0.88743
N         -0.17502        1.70168       -0.70617
N         -2.19182        3.36395       -0.08304
H          0.83644        1.70887       -0.96185
