43
2msa1eda1tma_220.log	Energy: -1062673.7140457
S          1.45653        1.79073       -0.57327
O          2.34398        2.84892       -0.10482
O          0.62853        1.21142        0.56025
O          2.13658        0.68606       -1.31268
H          2.27144       -0.77628       -0.64097
C          0.27508        2.47651       -1.71341
H         -0.27440        3.26322       -1.19503
H          0.82875        2.88759       -2.55784
H         -0.38642        1.66907       -2.03201
S         -0.88187       -1.64259       -0.87165
O          0.04440       -2.71656       -1.23907
O         -1.11641       -0.57605       -1.83460
O         -0.38320       -1.03721        0.50144
H         -0.01661       -0.05224        0.44062
C         -2.43120       -2.34998       -0.38478
H         -2.86218       -2.81347       -1.27318
H         -2.24016       -3.09585        0.38677
H         -3.04558       -1.51997       -0.01349
H          3.92253       -2.51261        1.13196
H          4.52234       -1.50196       -0.21209
H          4.70605       -0.40449        2.10232
H          3.82407        0.54545        0.90962
H          2.81115       -0.39326        3.34262
H          1.97290        0.38558        2.15085
H          2.22260       -2.46443       -0.61770
H          1.72437       -1.60322        0.70125
C          3.77007       -1.58506        0.57479
C          3.78629       -0.36895        1.51101
N          2.42872       -1.64164       -0.05024
N          2.59463       -0.39261        2.35580
N         -3.59455        0.49744        0.77733
C         -2.91510        1.58830        0.09452
H         -1.83686        1.50578        0.24815
H         -3.11242        1.53184       -0.97969
H         -3.24306        2.57816        0.46582
C         -5.03427        0.59065        0.61468
H         -5.28576        0.58900       -0.45036
H         -5.51969       -0.27162        1.08316
H         -5.45376        1.50983        1.06646
C         -3.21881        0.44020        2.18002
H         -3.70651       -0.41510        2.65900
H         -2.13680        0.30875        2.26474
H         -3.50570        1.35506        2.73218
