43
2msa1eda1tma_185.log	Energy: -1062674.8843258
S         -0.66853       -1.84248       -0.39543
O         -1.76505       -2.74440       -0.68197
O         -0.50597       -0.68137       -1.29114
O          0.66160       -2.67962       -0.39709
H          1.49019       -2.08799       -0.42630
C         -0.80663       -1.22782        1.26098
H         -1.68294       -0.56928        1.26178
H         -0.94553       -2.08457        1.92094
H          0.11384       -0.68848        1.49944
S          3.08253       -0.04217        0.34419
O          2.76505       -1.22053       -0.51722
O          2.07987        0.16027        1.41307
O          3.30199        1.18475       -0.46914
H          1.82930        1.63124       -1.16085
C          4.64034       -0.40504        1.12396
H          4.51629       -1.31208        1.71570
H          5.38461       -0.55274        0.34154
H          4.90572        0.44044        1.75858
H         -1.05258        1.51952        0.13341
H         -1.34764        3.25655        0.12564
H         -0.88322        2.50763       -2.13166
H          0.41685        3.59884       -1.56541
H          0.53082        0.63350       -1.56407
H          1.23706        1.60958       -2.70863
H          0.12670        3.12677        1.83571
H          1.04187        1.93401        1.18796
C         -0.56550        2.49861        0.01131
C         -0.06086        2.62771       -1.42137
N          0.49845        2.76773        0.96558
N          0.94598        1.57519       -1.73336
N         -3.63282        0.35570        0.49384
C         -3.70554        0.57526       -0.94172
H         -3.12299        1.46339       -1.20839
H         -3.27970       -0.28164       -1.46887
H         -4.74431        0.72857       -1.29054
C         -4.34866       -0.85545        0.87050
H         -3.93009       -1.71190        0.33490
H         -4.23336       -1.03164        1.94486
H         -5.42954       -0.78950        0.64645
C         -4.12166        1.50676        1.23101
H         -4.00124        1.33886        2.30559
H         -3.54447        2.39582        0.95785
H         -5.18995        1.71599        1.03170
