32
2msa1a1dma_12.log	Energy: -953973.9114597
S          1.44049       -1.40388        0.00836
O          2.15103       -0.61058        1.03172
O          1.11976       -0.59901       -1.20815
O          0.24509       -2.12275        0.53214
H         -1.16281       -1.53663        0.82350
C          2.54933       -2.69370       -0.52384
H          3.44298       -2.22489       -0.93606
H          2.79842       -3.30210        0.34572
H          2.04166       -3.29165       -1.28055
S         -2.46948       -0.02872       -0.01899
O         -3.87213        0.27950        0.16516
O         -2.12351       -1.23142        0.94021
O         -1.48546        1.04143        0.17752
H          1.04853        1.11216       -0.74614
C         -2.20490       -0.70707       -1.64333
H         -2.82509       -1.59767       -1.74328
H         -2.51031        0.05531       -2.36132
H         -1.14141       -0.93505       -1.74734
N          0.54736        1.62648        2.27120
H          0.67410        2.13075        3.14127
H          1.03849        0.73377        2.32949
H         -0.44233        1.42226        2.14893
N          1.26687        2.05740       -0.36606
C          0.49196        3.09402       -1.07221
C          2.73026        2.24284       -0.41425
H          0.97229        2.01475        0.65832
H          0.76498        3.09874       -2.12942
H         -0.56624        2.86307       -0.95506
H          0.71241        4.06870       -0.63247
H          3.06497        2.24385       -1.45331
H          2.98785        3.19213        0.05952
H          3.18773        1.41299        0.12542
