38
2msa2dma_203.log	Energy: -1003273.1546522
S         -0.92764       -1.39508        0.86767
O         -0.28525       -0.67007        1.96673
O         -0.70553       -0.70819       -0.47188
O         -2.39513       -1.62363        1.05006
H         -3.25166       -0.55480        0.06033
C         -0.15943       -2.98556        0.71517
H          0.90007       -2.80240        0.48885
H         -0.29159       -3.50317        1.66589
H         -0.65178       -3.52603       -0.09368
S          1.37641        2.26913       -0.01542
O          1.49013        3.65623       -0.41643
O          2.34789        1.29039       -0.48796
O         -0.08288        1.79172       -0.45603
H         -0.16267        0.78795       -0.43805
C          1.29662        2.16527        1.75910
H          2.28881        2.41428        2.13778
H          0.56020        2.88948        2.10729
H          1.00684        1.14731        2.03017
N         -3.27108        0.19197       -0.68345
C         -3.32007        1.52244       -0.03380
C         -4.31888       -0.04995       -1.69323
H         -2.32244        0.04176       -1.07166
H         -4.28709        1.64164        0.45632
H         -2.51658        1.57390        0.70059
H         -3.17283        2.29888       -0.78496
H         -5.29752        0.01611       -1.21629
H         -4.24255        0.69945       -2.48231
H         -4.18093       -1.04623       -2.11321
N          2.60251       -1.79809       -0.51772
C          2.21272       -2.06343       -1.89352
C          4.00641       -2.08121       -0.26827
H          2.42598       -0.81589       -0.32248
H          2.31519       -3.13533       -2.10329
H          1.16376       -1.78482       -2.02841
H          2.81902       -1.51400       -2.63374
H          4.19538       -3.15246       -0.40458
H          4.68971       -1.52920       -0.93650
H          4.25430       -1.82545        0.76553
