42
2msa2eda_225.log	Energy: -1072757.1357664
S         -2.58513       -0.46991        0.51881
O         -2.55718       -1.56186       -0.46398
O         -3.18852        0.79591        0.06620
O         -1.20718       -0.21845        1.10545
C         -3.56843       -1.02993        1.90075
H         -4.57935       -1.21272        1.53533
H         -3.12752       -1.94918        2.28726
H         -3.57028       -0.24995        2.66209
S          1.21946       -1.94904       -0.66352
O          2.54580       -2.53283       -0.55781
O          1.10722       -0.64492       -1.33085
O          0.64335       -1.83734        0.79566
H         -0.18051       -1.18815        0.87589
C          0.10571       -3.07188       -1.46663
H          0.17367       -4.03149       -0.95429
H         -0.89961       -2.64859       -1.39004
H          0.42878       -3.16068       -2.50442
H         -1.43502        2.40781        0.64313
H         -0.23978        3.73212        0.58176
H         -2.12645        4.01857       -1.05669
H         -0.54953        3.93974       -1.85634
H         -2.39894        1.66412       -1.63394
H         -1.90039        2.41866       -3.02354
H          0.72287        1.40691        0.65656
H          0.02470        1.16679       -0.85801
C         -0.67434        2.89498        0.03044
C         -1.28411        3.35099       -1.29311
N          0.37777        1.88878       -0.21714
N         -1.63739        2.17785       -2.07672
H          1.24257        2.26114       -0.63171
H          3.98619       -0.15683        0.54056
H          4.88392        1.35654        0.60632
H          3.78983        1.05507        2.68835
H          3.05856        2.43953        1.85727
H          1.82930       -0.24227        1.82148
H          1.39296        0.95700        2.83525
H          3.90523        1.70661       -1.34758
H          2.68902        0.65275       -1.09397
C          3.87412        0.93663        0.55520
C          3.15570        1.34752        1.83822
N          3.21177        1.41778       -0.66760
N          1.80937        0.77069        1.92832
