25
2msa1ma_74.log	Energy: -893787.6505850
S         -2.26859       -0.12903        0.07549
O         -2.84811        1.17914        0.26330
O         -1.31883       -0.64189        1.07668
O         -1.57472       -0.20339       -1.34877
H         -0.62787       -0.50490       -1.27591
C         -3.56377       -1.33085       -0.09507
H         -4.11924       -1.33800        0.84333
H         -4.20495       -1.01840       -0.91927
H         -3.11253       -2.30301       -0.29012
S          1.96453       -0.71427       -0.09868
O          2.87010        0.36308       -0.42771
O          0.90774       -1.07186       -1.05776
O          1.29278       -0.42590        1.30453
H          0.29666       -0.47260        1.24985
C          2.90395       -2.18053        0.24291
H          3.42601       -2.44841       -0.67621
H          3.61465       -1.94456        1.03489
H          2.21726       -2.96912        0.54851
N          1.60557        3.33687        0.00032
H          1.66242        3.87627       -0.85630
C          0.28667        2.73052        0.13609
H          0.02075        2.01913       -0.66319
H          0.22562        2.20816        1.09511
H         -0.48199        3.50739        0.14798
H          2.31649        2.61449       -0.05563
