26
2msa2a_89.log	Energy: -904633.1066899
S         -2.44066       -0.21404        0.00890
O         -3.73278       -0.50961        0.62244
O         -1.26830       -0.34737        0.93215
O         -2.37914        1.11142       -0.69678
H         -1.27666        2.04830        0.03155
C         -2.17627       -1.43338       -1.27375
H         -2.22152       -2.42080       -0.81216
H         -2.97080       -1.32599       -2.01280
H         -1.19907       -1.25667       -1.72422
S          2.19201       -0.77718        0.09743
O          1.98226        0.55482        0.64226
O          3.54073       -1.24190       -0.17895
O          1.38296       -0.81647       -1.31334
H          1.93769       -1.27827       -1.95868
C          1.30209       -1.95609        1.07218
H          1.41316       -2.93338        0.60225
H          1.76416       -1.95032        2.06063
H          0.25783       -1.62353        1.11550
N          1.86788        3.34808       -0.51836
H          2.39766        4.14471       -0.18082
H          1.82209        3.41629       -1.52999
H          2.38224        2.50020       -0.28497
N         -0.50745        2.33002        0.71012
H         -0.90477        2.88093        1.46533
H          0.29703        2.82363        0.25571
H         -0.20435        1.41747        1.07623
