34
2msa1a1eda_218.log	Energy: -988698.9342580
S          2.64233       -0.01802       -0.32073
O          3.67227        0.39522       -1.25258
O          1.66288       -0.96359       -1.12074
O          1.85148        1.03055        0.34266
H          0.26285        1.66813       -0.31954
C          3.33128       -1.05765        0.94045
H          3.75567       -1.93609        0.45457
H          4.11149       -0.47467        1.43223
H          2.53569       -1.30149        1.65426
S         -1.83292       -1.25612       -0.24407
O         -1.82236       -0.34553       -1.42772
O         -2.52721       -0.69735        0.92548
O         -0.44981       -1.73162        0.08434
H          0.82310       -1.23748       -0.61158
C         -2.73136       -2.70517       -0.75734
H         -2.23383       -3.12674       -1.63061
H         -2.72614       -3.41329        0.07135
H         -3.75017       -2.40188       -0.99875
N          0.66665       -0.64802        2.76279
H          0.27169       -0.62810        3.69631
H          0.01310       -1.13190        2.15111
H          0.72982        0.30693        2.41898
H         -2.83653        1.76584        0.06253
H         -2.76747        3.39795        0.73106
H         -1.88736        3.24904       -1.63560
H         -0.67013        3.86509       -0.48830
H         -0.90252        1.01087       -1.33092
H          0.23863        2.11741       -1.91061
H         -1.25025        2.61290        2.27844
H         -1.65081        1.08732        1.76053
C         -2.15442        2.54618        0.41287
C         -1.28243        3.00125       -0.75995
N         -1.31868        2.00429        1.47412
N         -0.36138        1.89335       -1.11925
