32
2msa1a1dma_122.log	Energy: -953954.6023533
S          0.84381        1.44138       -0.11499
O          0.90868        1.14858        1.33256
O         -0.18475        2.38720       -0.52415
O          0.70977        0.09384       -0.90820
H         -0.16119       -0.41855       -0.61018
C          2.44468        1.97209       -0.64667
H          2.67527        2.87939       -0.08737
H          3.15252        1.16082       -0.43778
H          2.38387        2.18153       -1.71477
S         -2.74867       -0.75149       -0.32124
O         -3.55380       -1.90924       -0.67364
O         -1.29049       -1.08727       -0.07057
O         -3.24715        0.03087        0.85814
H         -2.15884        0.13708        1.92424
C         -2.75580        0.38358       -1.69592
H         -2.35524       -0.13830       -2.56579
H         -3.79222        0.67284       -1.87174
H         -2.14587        1.25304       -1.44318
N         -1.31983        0.09931        2.60912
H         -0.49521        0.55243        2.16017
H         -1.09915       -0.88319        2.75762
H         -1.53841        0.54782        3.49432
N          3.57264       -1.07942       -0.23559
C          3.37385       -1.40684        1.16876
C          4.61904       -1.87500       -0.85762
H          2.69659       -1.20885       -0.73287
H          4.27542       -1.14407        1.73336
H          2.54285       -0.81729        1.56487
H          3.16737       -2.47697        1.34344
H          5.58213       -1.63650       -0.39355
H          4.46004       -2.96270       -0.75934
H          4.68947       -1.63069       -1.92093
