43
2msa1eda1tma_103.log	Energy: -1062682.9882655
S         -0.78679        2.22372        0.02166
O          0.58008        2.36874        0.55424
O         -1.73135        1.57692        0.97866
O         -0.81095        1.54844       -1.31078
C         -1.43872        3.86352       -0.23432
H         -1.46670        4.36752        0.73180
H         -0.77919        4.38875       -0.92535
H         -2.44200        3.77111       -0.65026
S         -2.26096       -1.74127       -0.27561
O         -2.93858       -3.00838       -0.09368
O         -0.80159       -1.73749       -0.39876
O         -2.69336       -0.81422        0.92767
H         -2.25491        0.09928        0.91045
C         -2.92928       -0.90119       -1.69518
H         -2.70434       -1.51683       -2.56730
H         -4.00648       -0.81062       -1.55613
H         -2.44263        0.07484       -1.76871
H          2.24707        1.04318       -2.44021
H          2.57107        1.48354       -0.75802
H          4.59285        0.44420       -1.81754
H          3.98975       -0.55991       -0.49742
H          3.58785       -1.11102       -3.34462
H          4.21166       -2.09069       -2.19305
H          0.45440        0.29197       -1.17016
H          1.35972       -1.08702       -1.49131
C          2.48773        0.64389       -1.45045
C          3.75704       -0.19614       -1.50369
N          1.35709       -0.19034       -1.00065
N          3.53353       -1.35793       -2.36204
H          1.42841       -0.38497        0.05255
N          1.75315       -0.67049        1.71666
C          0.49842       -0.59659        2.46931
H          0.05548        0.39315        2.34570
H         -0.20111       -1.33931        2.08321
H          0.66891       -0.78595        3.54225
C          2.32588       -2.00957        1.80303
H          1.61231       -2.73475        1.40283
H          3.24661       -2.06190        1.21183
H          2.56826       -2.28735        2.84237
C          2.68790        0.34819        2.18911
H          3.62007        0.29589        1.61613
H          2.23805        1.33346        2.04550
H          2.93453        0.21081        3.25525
