32
2msa2ma_144.log	Energy: -953960.2883735
S          1.62033        0.84546        0.41844
O          0.87441        2.03599       -0.03755
O          3.07792        1.11511        0.62984
O          1.44396       -0.33126       -0.50016
H          2.93805       -0.79359       -1.12259
C          0.94488        0.36581        1.98832
H          1.08007        1.20164        2.67566
H         -0.11671        0.14226        1.83471
H          1.48902       -0.51150        2.33969
S         -2.54223       -1.10267        0.07624
O         -3.78188       -1.76038        0.48412
O         -2.00777       -0.09245        1.02921
O         -2.60616       -0.50419       -1.30939
H         -2.02770        0.90591       -1.28489
C         -1.28464       -2.37067       -0.04595
H         -1.19610       -2.84889        0.93100
H         -1.60695       -3.09639       -0.79352
H         -0.34615       -1.89327       -0.33403
N         -1.65450        1.91729       -1.18287
H         -0.70638        1.86913       -0.75977
C         -2.56063        2.69829       -0.31133
H         -2.14946        3.69529       -0.14849
H         -3.54239        2.76314       -0.78095
H         -2.64315        2.15566        0.63035
H         -1.56575        2.33387       -2.10618
N          3.98793       -0.70319       -1.04896
H          4.39713       -0.48414       -1.95376
C          4.59834       -1.88566       -0.40552
H          5.66120       -1.70970       -0.24214
H          4.10162       -2.03767        0.55223
H          4.45480       -2.76341       -1.03499
H          4.00374        0.13927       -0.41605
