37
2msa1ma1eda_485.log	Energy: -1013350.7026583
S         -1.55150       -1.86698       -0.24463
O         -1.77357       -3.23834        0.18987
O         -0.93644       -1.01025        0.85335
O         -2.76269       -1.15565       -0.76392
H         -2.92643        0.25158       -0.02844
C         -0.37371       -1.87944       -1.57953
H          0.57441       -2.25041       -1.18488
H         -0.77194       -2.53763       -2.35237
H         -0.25336       -0.86026       -1.94885
S          0.44072        1.93947       -0.28200
O         -0.75426        2.74974        0.02813
O          0.45628        1.30415       -1.59272
O          0.64180        0.88606        0.85967
H          0.00249        0.06180        0.76844
C          1.89883        2.91382       -0.06129
H          1.87803        3.69221       -0.82469
H          1.87863        3.34593        0.93892
H          2.74014        2.22302       -0.20199
N         -2.93875        1.07831        0.64532
H         -2.60462        0.67604        1.52250
C         -4.27954        1.68455        0.76980
H         -4.25878        2.48183        1.51269
H         -4.56710        2.09382       -0.19791
H         -4.99361        0.91614        1.06474
H         -2.21934        1.76516        0.34600
H          4.66472       -1.63562       -0.17701
H          5.02419       -0.17331        0.75311
H          3.72191       -1.64437        2.15079
H          2.70881       -0.26008        1.70780
H          2.46575       -2.97243        0.67491
H          1.29641       -1.97303        1.23347
H          4.16089        0.23392       -1.55063
H          2.71184       -0.31548       -1.03220
C          4.21571       -0.73015        0.26487
C          3.19664       -1.15701        1.31597
N          3.57522        0.13192       -0.72852
N          2.16678       -2.00378        0.71144
