35
2msa1a1tma_17.log	Energy: -978628.9842558
S         -1.54851       -1.53747       -0.10388
O         -0.60280       -2.30445       -0.92238
O         -2.65183       -0.87985       -0.82135
O         -0.82090       -0.51895        0.76844
C         -2.27802       -2.67399        1.06388
H         -2.83150       -3.42108        0.49426
H         -1.47552       -3.14376        1.63301
H         -2.94787       -2.11688        1.71894
S          2.48088       -0.18837       -0.09127
O          3.80394        0.22362        0.32995
O          1.64696        0.75852       -0.83646
O          1.69047       -0.63206        1.20968
H          0.69126       -0.66705        1.02070
C          2.58103       -1.69060       -1.03357
H          3.09798       -1.45283       -1.96407
H          3.15137       -2.41276       -0.44928
H          1.56152       -2.03892       -1.21840
N         -0.23299        1.66090        2.69569
H         -0.43782        1.92845        3.65273
H          0.75268        1.41351        2.65821
H         -0.74248        0.80383        2.49127
N         -1.02314        2.02292       -0.53093
C         -2.37798        2.22955        0.04434
H         -2.95978        1.32407       -0.13185
H         -2.26002        2.41100        1.11264
H         -2.83699        3.09191       -0.44406
C         -0.12626        3.17154       -0.23915
H         -0.06760        3.27668        0.84473
H          0.85862        2.94986       -0.64659
H         -0.55114        4.06479       -0.70288
C         -1.08491        1.71816       -1.98606
H         -0.07500        1.49507       -2.32723
H         -1.73083        0.85038       -2.12497
H         -1.48791        2.59107       -2.50422
H         -0.64377        1.17677       -0.06360
