32
2msa1a1dma_35.log	Energy: -953969.9032869
S          2.36268       -0.00396       -0.12324
O          1.81864        1.25746       -0.62995
O          2.28811       -1.18045       -0.97612
O          1.75684       -0.30833        1.29636
H          0.78691       -0.69199        1.24284
C          4.05649        0.27435        0.34251
H          4.59464        0.53043       -0.57067
H          4.09262        1.09659        1.05647
H          4.45015       -0.64320        0.77859
S         -1.33587       -1.47637       -0.00566
O         -0.59575       -1.14605        1.26647
O         -1.00692       -0.49272       -1.06921
O         -2.77843       -1.63525        0.23695
H         -3.59095        0.21040        0.17742
C         -0.68081       -3.03536       -0.55973
H          0.38454       -2.89088       -0.74921
H         -0.85241       -3.77601        0.22160
H         -1.20203       -3.31020       -1.47692
N         -3.78773        1.21544        0.10238
H         -4.35381        1.47440        0.90430
H         -4.36517        1.33960       -0.72376
H         -2.13527        1.87991       -0.06485
N         -1.09153        2.04105       -0.11897
C         -0.57280        2.21770        1.25329
C         -0.76690        3.14372       -1.04124
H         -0.74451        1.13979       -0.51370
H         -1.04178        3.09595        1.70192
H         -0.81443        1.32073        1.82548
H          0.50902        2.33852        1.20714
H         -1.17853        4.07657       -0.65024
H          0.31666        3.21398       -1.13769
H         -1.20578        2.92549       -2.01524
