35
2msa1a1tma_50.log	Energy: -978620.1789676
S         -2.21664       -0.65230        0.42966
O         -1.34306       -1.72779       -0.02520
O         -3.63402       -0.95717        0.62497
O         -2.09992        0.57045       -0.56497
H         -3.02531        0.79465       -0.96908
C         -1.53631        0.02432        1.92068
H         -1.55880       -0.77155        2.66691
H         -0.50755        0.35267        1.72625
H         -2.16610        0.85667        2.23530
S          1.71272        1.66685        0.05637
O          3.02174        2.31761       -0.03933
O          1.44182        0.99952        1.35804
O          1.44353        0.70454       -1.07414
H          1.64578       -0.73368       -0.57078
C          0.46320        2.92886       -0.13869
H          0.57157        3.64212        0.67927
H          0.62761        3.42032       -1.09807
H         -0.51356        2.44344       -0.12034
N         -4.51351        0.99869       -1.49623
H         -4.92697        1.91488       -1.35774
H         -5.00667        0.32734       -0.91053
H         -4.64668        0.73431       -2.46705
N          2.04984       -1.71122       -0.35776
C          1.50716       -2.63111       -1.38209
H          0.42389       -2.66963       -1.26689
H          1.75842       -2.23822       -2.36813
H          1.94553       -3.62386       -1.24956
C          3.51447       -1.52650       -0.48659
H          3.73036       -1.13345       -1.48005
H          3.83906       -0.79678        0.25624
H          4.01813       -2.48395       -0.33117
C          1.67212       -2.11618        1.01726
H          1.96146       -1.31332        1.69599
H          0.59121       -2.24959        1.04773
H          2.18252       -3.05120        1.26466
