35
2msa1ma1dma_169.log	Energy: -978623.4546800
S          1.62156       -1.49573        0.14194
O          2.69700       -0.72689       -0.54826
O          0.64824       -2.13227       -0.74858
O          0.97841       -0.62626        1.19338
H         -0.46958       -0.29953        1.17161
C          2.45305       -2.78788        1.04439
H          2.97056       -3.41906        0.32172
H          3.16039       -2.32938        1.73519
H          1.69813       -3.35985        1.58422
S         -1.74854        1.28549        0.37051
O         -1.71885        2.46085        1.22857
O         -1.46111       -0.01684        1.19705
O         -0.85746        1.32743       -0.80668
H          0.80142        1.65059       -0.69848
C         -3.38868        0.94829       -0.19451
H         -4.02768        0.83994        0.68220
H         -3.69891        1.80376       -0.79575
H         -3.32869        0.02277       -0.78453
N         -2.39136       -1.88278       -1.41017
H         -2.53624       -2.29624       -2.32532
C         -2.79887       -2.81852       -0.36305
H         -2.25280       -3.77262       -0.37100
H         -2.63841       -2.34683        0.61044
H         -3.86832       -3.03347       -0.45761
H         -1.39048       -1.71081       -1.32880
N          1.82099        1.83240       -0.57236
C          2.01267        2.42397        0.77025
C          2.31714        2.65985       -1.68796
H          2.26319        0.87778       -0.59711
H          1.43322        3.34524        0.84514
H          1.66102        1.69950        1.50482
H          3.07376        2.62648        0.92449
H          1.79661        3.61878       -1.68728
H          3.38986        2.81971       -1.56907
H          2.12559        2.13718       -2.62501
