26
2msa2a_64.log	Energy: -904639.4314268
S          2.24076        0.00542       -0.39246
O          3.53004        0.39049       -0.94215
O          1.10233        0.87692       -0.87603
O          2.18697       -0.03547        1.11158
H          1.29479        1.22545        1.57476
C          1.85601       -1.64729       -0.93761
H          1.78769       -1.62995       -2.02580
H          2.67089       -2.29717       -0.61701
H          0.91542       -1.96071       -0.48065
S         -2.30055        0.19584       -0.30493
O         -3.45992        0.94046       -0.74661
O         -1.66489        0.61845        0.96325
O         -1.22215        0.16941       -1.43884
H         -0.25960        0.43629       -1.15848
C         -2.71970       -1.52038       -0.13978
H         -3.52319       -1.58517        0.59513
H         -3.06245       -1.87285       -1.11272
H         -1.83012       -2.05377        0.20552
N         -0.10591       -1.94690        1.91153
H         -0.03120       -2.67683        2.61183
H         -0.77875       -1.26014        2.23971
H          0.79454       -1.47360        1.84941
N          0.58234        2.01885        1.60784
H          0.56003        2.49575        2.50452
H         -0.34143        1.59169        1.37573
H          0.82812        2.66111        0.85536
