42
2msa2eda_460.log	Energy: -1072746.7836799
S         -2.03050       -0.34183       -1.32628
O         -2.51396        0.62851       -0.29739
O         -1.56326       -1.60817       -0.70750
O         -1.04469        0.26006       -2.25081
C         -3.46686       -0.75467       -2.30411
H         -4.21594       -1.19196       -1.64372
H         -3.84361        0.16006       -2.76206
H         -3.16069       -1.47040       -3.06734
S          2.56924       -1.10578       -0.18292
O          3.68488       -0.32788       -0.70018
O          1.80013       -0.58753        0.93562
O          3.17369       -2.53904        0.28833
H          4.13094       -2.51393        0.14797
C          1.48267       -1.59766       -1.48652
H          1.01090       -0.69606       -1.88838
H          2.07730       -2.10894       -2.24322
H          0.69789       -2.23024       -1.06912
H         -0.70720        0.15639        3.79110
H         -2.05677        1.19578        3.25954
H         -2.75503       -1.17644        3.74652
H         -3.11727       -0.66110        2.09243
H         -1.78756       -2.90363        2.66187
H         -1.49966       -2.05830        1.28192
H         -0.17517        1.55971        1.79102
H         -0.03296       -0.10073        1.54295
C         -1.44220        0.32909        3.00134
C         -2.30266       -0.91436        2.78509
N         -0.70499        0.64612        1.75784
N         -1.47423       -2.01235        2.30094
H         -1.37680        0.70809        0.95388
H          2.22570        3.82099        0.20023
H          2.44093        2.20798        0.90998
H          1.94254        2.05829       -1.50391
H          0.70074        1.27751       -0.53566
H          0.38742        3.74613       -2.00212
H         -0.61931        2.45924       -1.81911
H          0.93275        3.70685        2.19622
H         -0.10645        3.63949        0.91961
C          1.70747        2.88763        0.46613
C          1.12667        2.25045       -0.79329
N          0.61753        3.12687        1.42573
N          0.04204        3.06314       -1.33733
