29
2msa1a1ma_72.log	Energy: -929301.6412395
S         -1.01453        1.13514       -0.20863
O         -2.45487        1.44925       -0.06534
O         -0.72013        0.12018       -1.24309
O         -0.44326        0.72028        1.13361
H         -1.80050       -0.07164        2.05225
C         -0.15649        2.62457       -0.65437
H         -0.52879        2.94236       -1.62862
H         -0.36903        3.37550        0.10647
H          0.90933        2.39059       -0.68699
S          2.79748       -0.37671        0.10412
O          4.04777       -0.94278        0.56754
O          2.68637        1.05834       -0.13136
O          1.67390       -0.81724        1.14389
H          0.89679       -0.18211        1.11958
C          2.29509       -1.21944       -1.38203
H          3.02150       -0.96337       -2.15435
H          2.30707       -2.29162       -1.18594
H          1.29603       -0.86618       -1.64581
N         -2.77866       -0.41252        1.96547
H         -3.27820        0.39051        1.56974
H         -3.17381       -0.72589        2.84611
H         -2.75145       -1.18272        1.17559
N         -2.58615       -1.98865       -0.21464
H         -1.74605       -1.56603       -0.62128
C         -3.73087       -1.66728       -1.08262
H         -3.62674       -2.07834       -2.09206
H         -4.65136       -2.05703       -0.63898
H         -3.80611       -0.58004       -1.15979
H         -2.43688       -2.99198       -0.16752
