41
2msa1dma1tma_123.log	Energy: -1027939.1485729
S          1.11499        2.21304       -0.17903
O          1.79994        2.78036       -1.32588
O          1.84807        2.08608        1.08043
O          0.59975        0.75231       -0.52313
C         -0.39209        3.11423        0.11514
H         -1.00226        2.56694        0.83644
H         -0.09840        4.09486        0.49135
H         -0.92498        3.20393       -0.83164
S         -2.43041       -0.14612       -0.12292
O         -2.61022        0.78763        1.00043
O         -1.77427       -1.41806        0.25467
O         -1.71907        0.49767       -1.29516
H         -0.37189        0.70097       -0.94871
C         -4.04230       -0.54619       -0.76688
H         -4.61194       -1.01304        0.03705
H         -4.51938        0.37883       -1.09022
H         -3.91769       -1.23311       -1.60376
N          1.77668       -2.38580       -1.36158
C          2.70515       -1.42857       -1.96169
C          0.48921       -2.40880       -2.05524
H          2.18835       -3.31264       -1.42292
H          2.31272       -0.41778       -1.82651
H          3.67633       -1.48852       -1.46068
H          2.86179       -1.59643       -3.03955
H          0.00583       -1.43396       -1.96357
H          0.58524       -2.64399       -3.12794
H         -0.17320       -3.14144       -1.58706
N          0.89587       -1.25594        1.59374
C          0.50287       -2.67969        1.74171
H         -0.58054       -2.74354        1.65762
H          0.97424       -3.23511        0.93150
H          0.85031       -3.03539        2.71418
C          2.37155       -1.08278        1.64617
H          2.80463       -1.70889        0.86764
H          2.59947       -0.03164        1.46651
H          2.72038       -1.38768        2.63522
C          0.20814       -0.38475        2.58695
H          0.56317        0.63611        2.44521
H         -0.86586       -0.43980        2.41154
H          0.46363       -0.74034        3.58752
H          0.59018       -0.94544        0.65889
