43
2msa1eda1tma_77.log	Energy: -1062683.2837471
S         -1.44521        2.01980        0.40231
O         -1.43983        1.68464       -1.03297
O         -0.16135        2.57965        0.89611
O         -1.86678        0.86020        1.25926
C         -2.67946        3.28150        0.65124
H         -2.38670        4.15856        0.07370
H         -3.63511        2.89051        0.30118
H         -2.72212        3.51303        1.71541
S         -1.71427       -2.12393       -0.49222
O         -2.11670       -3.51212       -0.57079
O         -0.34734       -1.82977       -0.03120
O         -2.74339       -1.37074        0.42569
H         -2.39666       -0.45701        0.73192
C         -1.92315       -1.34478       -2.07584
H         -1.19977       -1.79459       -2.75730
H         -2.94174       -1.54173       -2.41060
H         -1.74589       -0.27323       -1.95062
H          2.63988        0.16329        2.70670
H          1.00674       -0.35595        3.16705
H          2.47470       -2.31915        3.11000
H          1.26048       -2.42489        1.82949
H          4.09602       -1.86626        1.45343
H          3.10912       -2.88125        0.62999
H          0.81443        1.10627        1.29669
H          1.95908        0.28983        0.38288
C          1.77432       -0.42760        2.39268
C          2.15436       -1.88384        2.15292
N          1.23857        0.17115        1.15378
N          3.15509       -1.98233        1.09383
H          0.49922       -0.43491        0.76085
N          2.63168        0.82038       -1.16757
C          2.64319        2.28114       -1.19197
H          1.66623        2.66001       -0.87899
H          3.39800        2.65202       -0.49185
H          2.87666        2.67423       -2.19591
C          3.94212        0.26173       -1.46901
H          4.67782        0.63905       -0.75258
H          3.89951       -0.82561       -1.37251
H          4.27803        0.52436       -2.48729
C          1.60990        0.29083       -2.06989
H          1.53452       -0.79263       -1.93676
H          0.64186        0.74126       -1.83032
H          1.84551        0.50772       -3.12570
