28
2msa1dma_91.log	Energy: -918445.3666141
S          2.11045       -0.88380       -0.06261
O          1.08733       -0.88884       -1.10653
O          3.40744       -0.31707       -0.38439
O          2.35319       -2.42476        0.38583
H          3.21397       -2.70267        0.03975
C          1.43954       -0.20496        1.41760
H          1.20723        0.83981        1.15329
H          0.53371       -0.75990        1.66999
H          2.20123       -0.27245        2.19390
S         -2.25030       -0.49567        0.12336
O         -2.37695        0.93212        0.36248
O         -1.57414       -1.31056        1.12564
O         -1.57545       -0.75218       -1.29876
H         -0.58901       -0.81380       -1.20874
C         -3.85491       -1.17630       -0.21567
H         -4.45386       -1.02331        0.68253
H         -4.28565       -0.64092       -1.06140
H         -3.74090       -2.23759       -0.43270
N          0.96061        2.67200        0.04020
C          0.09883        3.49676        0.87907
C          0.41465        2.48427       -1.29995
H          1.87950        3.09723       -0.02920
H         -0.85387        2.97868        1.02416
H          0.56461        3.64136        1.85843
H         -0.11277        4.48780        0.44327
H         -0.54579        1.96722       -1.22190
H          0.24429        3.43496       -1.83284
H          1.09069        1.86287       -1.89242
