44
2msa2tma_16.log	Energy: -1052604.3686426
S         -0.86763        2.15049       -0.39318
O         -0.63170        2.86556        0.87245
O         -2.25983        1.63867       -0.55371
O          0.13538        1.07052       -0.63520
C         -0.65888        3.33291       -1.71187
H          0.34681        3.74766       -1.63882
H         -0.80000        2.82133       -2.66403
H         -1.40683        4.11522       -1.58154
S         -2.14864       -1.80785       -0.12386
O         -2.86961       -3.05579        0.01510
O         -0.92153       -1.62495        0.65561
O         -3.16106       -0.64318        0.20086
H         -2.77731        0.27068       -0.02097
C         -1.73773       -1.52839       -1.83334
H         -1.06497       -2.33207       -2.13578
H         -2.65971       -1.55554       -2.41385
H         -1.24144       -0.55887       -1.90476
N          3.16046       -0.80636       -0.79925
C          3.32944        0.47002       -1.47959
H          2.40226        1.04455       -1.40317
H          4.14138        1.03580       -1.01000
H          3.57851        0.34090       -2.54978
C          4.38352       -1.59011       -0.83737
H          5.19891       -1.03522       -0.36303
H          4.24257       -2.52803       -0.29049
H          4.69154       -1.84036       -1.87014
C          2.04287       -1.54778       -1.36803
H          1.89060       -2.47986       -0.81446
H          1.13276       -0.94970       -1.28913
H          2.21232       -1.80142       -2.43171
N          0.99983        0.13426        1.89812
C          1.63959       -1.18557        2.13394
H          0.87798       -1.95793        2.04272
H          2.41316       -1.31378        1.37465
H          2.07445       -1.18261        3.13622
C          2.00175        1.23150        1.91277
H          2.75868        1.00110        1.16314
H          1.48875        2.16236        1.67013
H          2.45063        1.28230        2.90738
C         -0.10760        0.39063        2.85886
H         -0.55808        1.35256        2.61134
H         -0.83945       -0.40888        2.75174
H          0.30991        0.40487        3.86813
H          0.58392        0.14147        0.94363
