28
2msa1dma_09.log	Energy: -918474.7092393
S          1.91788       -0.85758        0.04812
O          1.17317       -1.96098        0.66363
O          2.47015        0.15918        0.95783
O          1.08341       -0.16590       -1.03085
C          3.28413       -1.57635       -0.84413
H          3.92444       -2.07590       -0.11655
H          2.88582       -2.29361       -1.56172
H          3.82667       -0.77827       -1.35081
S         -2.26634       -0.47111        0.05294
O         -3.65157       -0.29530       -0.32502
O         -1.65686        0.54015        0.93524
O         -1.42637       -0.55531       -1.28211
H         -0.41603       -0.49561       -1.14131
C         -2.02937       -2.05533        0.81417
H         -2.58050       -2.04164        1.75517
H         -2.43287       -2.80911        0.13804
H         -0.95750       -2.19407        0.97834
N          0.31634        2.22356        0.06199
C          1.16655        3.01026        0.98019
C         -0.38072        3.00622       -0.98057
H          0.86594        1.46174       -0.39228
H          0.53741        3.69005        1.55670
H          1.69069        2.31111        1.63088
H          1.89052        3.57840        0.39439
H         -1.02977        3.74282       -0.50541
H          0.35731        3.50704       -1.60844
H         -0.98013        2.32357       -1.58380
H         -0.39981        1.68417        0.58811
