29
2msa1a1ma_120.log	Energy: -929293.8472895
S          2.13088       -0.19798        0.20611
O          2.35150       -1.63747       -0.03501
O          1.57858        0.17064        1.50060
O          1.28370        0.39437       -0.95884
H          0.23642        0.17937       -0.87322
C          3.67489        0.63453       -0.05339
H          4.36993        0.25670        0.69694
H          4.02750        0.40965       -1.05939
H          3.50661        1.70326        0.07745
S         -2.09862       -0.49298        0.13337
O         -3.47097       -0.37506       -0.32776
O         -1.10065       -0.12002       -0.95627
O         -1.72467       -1.84927        0.66182
H         -0.71942       -2.56793       -0.16563
C         -1.82506        0.64593        1.46931
H         -2.00874        1.65189        1.08054
H         -2.52983        0.38807        2.26038
H         -0.79430        0.53248        1.81054
N          0.05402       -2.99207       -0.81190
H         -0.14246       -2.68611       -1.76316
H          0.05992       -4.00708       -0.76549
H          0.97341       -2.60257       -0.51700
N         -1.28056        3.07820       -0.65773
H         -1.28373        2.20214       -1.17303
C          0.05620        3.39871       -0.16863
H          0.83142        3.45843       -0.94760
H          0.02634        4.35626        0.35963
H          0.36826        2.63741        0.55315
H         -1.62773        3.79982       -1.27855
