43
2msa1eda1tma_72.log	Energy: -1062682.9464545
S          1.37619        2.32481       -0.25558
O          1.34630        3.75121       -0.01143
O          0.08608        1.62556       -0.39331
O          2.19923        1.65673        0.90516
C          2.33181        1.97330       -1.71025
H          1.79719        2.40285       -2.55833
H          3.30479        2.44937       -1.58744
H          2.42712        0.88771       -1.80257
S          2.02630       -1.84301       -0.05508
O          2.51913       -1.22794       -1.29394
O          0.75180       -2.59528       -0.19158
O          1.91779       -0.85149        1.07663
H          2.11311        0.63385        0.92114
C          3.24602       -3.02828        0.47940
H          3.33851       -3.78542       -0.29964
H          4.19108       -2.50348        0.61991
H          2.90633       -3.47487        1.41366
H         -1.64776       -1.52403        2.50574
H         -0.11355       -0.63306        2.51524
H         -1.74025        0.73131        3.68422
H         -1.40096        1.50173        2.13318
H         -3.80916       -0.04337        2.76488
H         -3.70185        1.50334        2.25937
H         -0.52629       -1.52158        0.36012
H         -2.01057       -0.68459        0.18094
C         -1.14138       -0.62332        2.14575
C         -1.87374        0.63020        2.59767
N         -1.07428       -0.69368        0.67176
N         -3.27442        0.58779        2.17623
H         -0.56206        0.12881        0.30965
N         -3.15659       -0.52239       -1.17638
C         -2.47491       -1.11986       -2.32051
H         -1.48900       -0.66126       -2.44042
H         -2.33196       -2.19062       -2.15062
H         -3.03953       -0.98328       -3.25815
C         -4.44585       -1.14926       -0.92402
H         -4.30973       -2.22377       -0.76977
H         -4.88101       -0.71906       -0.01794
H         -5.15115       -1.00518       -1.76088
C         -3.28820        0.92313       -1.33347
H         -3.75381        1.33631       -0.43578
H         -2.29788        1.37465       -1.44346
H         -3.89951        1.18693       -2.21337
