34
2msa1a1eda_326.log	Energy: -988688.2490707
S         -2.56941       -0.59833        0.10276
O         -1.69457       -1.69681       -0.27929
O         -3.26941        0.12307       -0.96474
O         -1.82095        0.44155        1.00045
H         -1.70176        1.39373        0.47192
C         -3.77225       -1.24450        1.24585
H         -4.33914       -2.01177        0.71741
H         -3.23876       -1.67681        2.09228
H         -4.42450       -0.43246        1.56581
S          1.79485       -1.18305       -0.27422
O          1.46809       -0.27909       -1.37378
O          1.20685       -0.88720        1.03003
O          3.36542       -1.27126       -0.11563
H          3.67063       -0.39121        0.35930
C          1.39829       -2.84343       -0.74362
H          1.72312       -3.51559        0.04973
H          0.31209       -2.85918       -0.85353
H          1.89786       -3.06458       -1.68639
N          3.93118        0.97963        1.11547
H          4.62637        1.58124        0.68485
H          4.22394        0.80482        2.07219
H          3.03922        1.49624        1.15795
H          0.91610        3.85453       -0.22081
H          1.77545        2.52717       -0.99447
H         -0.35170        2.95033       -2.11154
H         -0.23772        1.30708       -1.45837
H         -1.67041        3.45498       -0.03627
H         -2.37945        2.33685       -1.01782
H          0.46924        2.55085        1.62793
H          0.82755        1.13596        0.89886
C          0.90543        2.76729       -0.37356
C         -0.32477        2.36212       -1.18581
N          1.06885        2.12756        0.92875
N         -1.57559        2.51694       -0.41695
