35
2msa1ma1dma_188.log	Energy: -978620.7715374
S          2.76717       -0.18334        0.01121
O          2.36338        0.79861       -1.04055
O          2.20462       -1.54493       -0.25840
O          2.48613        0.31106        1.36783
H         -0.31113        1.15520        0.45148
C          4.52565       -0.39920       -0.16136
H          4.72713       -0.76909       -1.16644
H          5.00014        0.56885       -0.00028
H          4.85027       -1.11967        0.58932
S         -1.28070       -1.32239       -0.05692
O         -1.35391       -0.80346       -1.41940
O         -1.21730       -0.27798        0.99011
O         -0.11714       -2.33662        0.12169
H          0.84595       -1.94329       -0.03455
C         -2.66750       -2.36804        0.28386
H         -3.54860       -1.71819        0.28501
H         -2.71483       -3.12613       -0.49743
H         -2.51710       -2.82036        1.26391
N         -4.26662        0.47980        0.74655
H         -4.97647        0.83018        1.37936
C         -4.26909        1.21659       -0.51414
H         -4.09794        2.30029       -0.41400
H         -3.49502        0.80554       -1.16894
H         -5.23067        1.07590       -1.01552
H         -3.36551        0.55653        1.21017
N          0.15490        1.95460       -0.02000
C          0.60895        2.92564        0.99727
C         -0.75546        2.49531       -1.04911
H          1.00621        1.53831       -0.48690
H         -0.25348        3.30219        1.55016
H          1.29955        2.40567        1.66202
H          1.12007        3.75072        0.49844
H         -1.63901        2.91813       -0.56743
H         -0.23462        3.26883       -1.61551
H         -1.04796        1.67588       -1.70667
