40
2msa1dma1eda_30.log	Energy: -1038036.9495349
S         -3.07449        0.44527        0.12234
O         -3.29754       -0.56464        1.16691
O         -2.21969       -0.07670       -0.99631
O         -2.54196        1.74492        0.62011
H         -0.90122        1.83145        0.26629
C         -4.65861        0.81874       -0.60753
H         -5.07238       -0.10460       -1.01334
H         -5.30421        1.21588        0.17617
H         -4.51119        1.55649       -1.39625
S          2.60751       -0.90453        0.04733
O          3.08582        0.21776       -0.77898
O          2.47809       -2.20129       -0.63263
O          1.31465       -0.54905        0.75765
H          0.11809       -1.69303        0.12386
C          3.80386       -1.11509        1.35750
H          4.75311       -1.38988        0.89673
H          3.89947       -0.17175        1.89596
H          3.45606       -1.90516        2.02304
N         -0.71533       -2.20411       -0.23520
C         -1.29762       -3.00163        0.86444
C         -0.34539       -2.98989       -1.43116
H         -1.38375       -1.44448       -0.51711
H         -0.55153       -3.71379        1.22068
H         -1.60612       -2.32103        1.65698
H         -2.17754       -3.52934        0.49425
H          0.41284       -3.72338       -1.16020
H         -1.24133       -3.47446       -1.82311
H          0.07451       -2.31419       -2.17485
H          0.20556        3.91153        0.45003
H          0.76394        2.88192        1.78702
H          2.64067        4.08726        0.49307
H          2.82703        2.33300        0.60266
H          2.60158        3.80532       -1.75886
H          2.69872        2.16291       -1.57055
H          0.27936        1.95609       -0.94700
H          0.56606        0.96389        0.35602
C          0.78872        3.02300        0.70461
C          2.21841        3.13152        0.16652
N          0.12742        1.86540        0.06397
N          2.20401        3.00436       -1.28825
