38
2msa1ma1tma_107.log	Energy: -1003277.8587393
S         -2.09854       -0.85069       -0.74861
O         -3.08920       -1.78266       -1.26690
O         -0.68216       -1.39239       -0.88099
O         -2.31426       -0.42729        0.67148
H         -1.15321       -1.02756        1.59841
C         -2.12144        0.63905       -1.71866
H         -1.90389        0.36976       -2.75270
H         -3.12097        1.06813       -1.63770
H         -1.37036        1.31634       -1.29764
S          2.49585       -0.29459       -0.28292
O          2.05668       -1.11433        0.86346
O          3.22413        0.92542        0.00668
O          1.27614        0.03778       -1.18286
H          0.41141       -0.57972       -1.03468
C          3.50531       -1.34046       -1.30779
H          4.39541       -1.60286       -0.73513
H          2.93093       -2.23056       -1.56555
H          3.77433       -0.77685       -2.20116
N         -0.36618       -1.54420        2.09320
H          0.52508       -1.27097        1.63165
C         -0.57588       -3.00479        1.94968
H          0.24925       -3.54098        2.41811
H         -1.52380       -3.27861        2.41203
H         -0.61104       -3.22158        0.88233
H         -0.32970       -1.25480        3.06781
N         -0.48101        2.58786        0.39537
C         -1.75761        3.25961        0.55641
H         -2.08272        3.67478       -0.40316
H         -2.50894        2.53715        0.89058
H         -1.71233        4.08787        1.28940
C         -0.04656        2.00191        1.64857
H         -0.81180        1.30033        1.99551
H          0.89844        1.47101        1.50330
H          0.11139        2.76265        2.43829
C          0.53410        3.46891       -0.15669
H          1.46585        2.91498       -0.29621
H          0.20511        3.84318       -1.13131
H          0.73681        4.33972        0.49637
