35
2msa1ma1dma_212.log	Energy: -978619.1253039
S         -0.72135       -1.89528        0.07520
O         -1.58162       -2.99721       -0.29418
O         -0.87855       -0.78053       -1.03556
O          0.71808       -2.17811        0.25070
H          2.15270       -1.47309       -0.26397
C         -1.31067       -1.11729        1.55331
H         -2.34030       -0.79897        1.35637
H         -1.25546       -1.86364        2.34674
H         -0.66936       -0.25680        1.75946
S          1.42915        1.72253        0.13457
O          2.83299        1.40761        0.52932
O          0.44687        1.62895        1.21844
O          1.05306        0.88782       -1.06377
H         -0.13026       -0.08926       -1.01151
C          1.43922        3.40889       -0.43837
H          1.73322        4.04385        0.39768
H          2.15189        3.49344       -1.25844
H          0.43060        3.65438       -0.77174
N          3.08824       -1.07254       -0.49966
H          3.08838       -0.90024       -1.50360
C          4.18146       -1.96658       -0.06671
H          5.14300       -1.51051       -0.30138
H          4.09800       -2.10977        1.00987
H          4.08798       -2.92968       -0.56793
H          3.12063       -0.12300       -0.03949
N         -3.61053        0.47122       -0.11728
C         -2.97774        1.75865        0.12185
C         -5.03109        0.57840       -0.40019
H         -3.13541        0.00079       -0.88098
H         -3.40720        2.21171        1.02248
H         -1.90748        1.62244        0.29994
H         -3.11002        2.47518       -0.70870
H         -5.54850        0.96835        0.48339
H         -5.26428        1.24879       -1.24661
H         -5.44071       -0.41139       -0.61816
