35
2msa1ma1dma_174.log	Energy: -978621.0004214
S         -2.05906       -1.18887       -0.22597
O         -2.77337       -0.29273        0.73209
O         -1.30884       -2.28183        0.38661
O         -1.22933       -0.34355       -1.16429
H          0.23775       -0.45071       -1.28625
C         -3.32781       -1.90103       -1.25686
H         -3.98451       -2.49140       -0.61743
H         -3.87829       -1.09379       -1.73959
H         -2.84084       -2.53632       -1.99696
S          1.85917        0.86137       -0.67946
O          1.69285        2.04524       -1.51255
O          1.26901       -0.41208       -1.37345
O          1.31865        0.97586        0.69198
H         -0.29982        1.53385        0.86648
C          3.55996        0.39501       -0.57072
H          3.92821        0.24504       -1.58593
H          4.07944        1.22694       -0.09323
H          3.62352       -0.52376        0.02985
N          3.32260       -2.32936        1.27367
H          3.69478       -3.17970        0.86355
C          1.86042       -2.41439        1.38760
H          1.50318       -3.23768        2.02022
H          1.47467       -1.47526        1.79005
H          1.41989       -2.53203        0.39657
H          3.74571       -2.24219        2.19197
N         -1.26080        1.92906        0.94027
C         -1.50370        2.76321       -0.25769
C         -1.39354        2.63902        2.22596
H         -1.90672        1.09597        0.91331
H         -0.73939        3.53883       -0.31943
H         -1.44203        2.11349       -1.13052
H         -2.49751        3.20823       -0.18619
H         -0.66756        3.45260        2.26753
H         -2.40498        3.03790        2.31734
H         -1.20364        1.93369        3.03506
