44
2msa2tma_23.log	Energy: -1052600.0301739
S          0.25410        2.05557       -0.12038
O          0.43968        2.03290        1.32958
O         -1.03938        1.45175       -0.58308
O          1.37958        1.44084       -0.89341
C          0.20224        3.76198       -0.63747
H         -0.62473        4.24481       -0.11602
H          1.15005        4.22567       -0.36336
H          0.05120        3.79420       -1.71633
S         -3.33808       -0.74752        0.44229
O         -2.42687       -1.49986        1.29743
O         -3.32119       -1.06066       -0.98386
O         -3.15606        0.80348        0.66428
H         -2.28714        1.12312        0.23434
C         -4.99263       -0.91884        1.06691
H         -5.25289       -1.97381        0.97658
H         -5.00118       -0.60646        2.11075
H         -5.65662       -0.30223        0.46215
N          3.65097       -0.83815        0.86745
C          2.95227       -0.32670        2.04169
H          2.21962        0.42935        1.74776
H          2.42433       -1.14386        2.54476
H          3.64968        0.12623        2.77066
C          4.59456       -1.87996        1.23466
H          4.06847       -2.70226        1.73008
H          5.08282       -2.27667        0.33807
H          5.38229       -1.51449        1.92052
C          4.31508        0.24659        0.15731
H          4.81024       -0.14487       -0.73870
H          3.57218        0.98697       -0.14905
H          5.08324        0.74267        0.77970
N          0.85488       -1.13219       -1.46396
C         -0.28039       -1.13216       -2.42026
H         -1.14491       -0.66721       -1.94689
H          0.01048       -0.56480       -3.30537
H         -0.51387       -2.16444       -2.69028
C          2.08912       -1.70473       -2.04943
H          2.36139       -1.12877       -2.93502
H          2.87315       -1.63827       -1.29235
H          1.90527       -2.74669       -2.32229
C          0.50294       -1.80603       -0.18690
H          1.37964       -1.76244        0.45937
H         -0.34285       -1.29618        0.27327
H          0.22786       -2.84166       -0.39949
H          1.06957       -0.12274       -1.23464
