38
2msa1ma1tma_26.log	Energy: -1003285.0286248
S          3.61074        0.49203       -0.25405
O          3.37565        1.62145        0.65326
O          2.51847        0.25224       -1.23200
O          3.95872       -0.78740        0.46352
H          2.65966       -1.62713        0.67828
C          5.07435        0.88220       -1.20408
H          4.88368        1.80953       -1.74508
H          5.90405        1.00971       -0.50829
H          5.27174        0.06396       -1.89681
S         -1.16901        0.26732        0.82528
O         -0.40893       -0.74117        1.60055
O         -2.27725        0.89335        1.57549
O         -1.68704       -0.32324       -0.47189
H         -3.15796       -0.11747       -0.56009
C         -0.02693        1.53970        0.34764
H          0.72925        1.11157       -0.31613
H         -0.59196        2.32385       -0.15785
H          0.45202        1.92544        1.24783
N          1.73728       -2.17589        0.72650
H          1.84640       -2.95076        1.37605
C          1.35132       -2.63467       -0.62757
H          0.35687       -3.08007       -0.59262
H          1.35684       -1.75798       -1.27582
H          2.08520       -3.35695       -0.98635
H          0.98948       -1.54994        1.10136
N         -4.23557        0.03888       -0.63731
C         -4.67447       -0.58144       -1.90431
H         -4.13685       -0.11593       -2.73118
H         -4.43842       -1.64574       -1.87715
H         -5.75082       -0.44115       -2.03326
C         -4.84746       -0.60708        0.54823
H         -4.62350       -1.67417        0.51865
H         -4.39467       -0.16800        1.43791
H         -5.92916       -0.44932        0.53216
C         -4.45150        1.50496       -0.62771
H         -4.02038        1.89980        0.29276
H         -3.93761        1.93945       -1.48629
H         -5.52231        1.71701       -0.68675
