35
2msa1ma1dma_181.log	Energy: -978620.8229429
S          0.91773       -1.75089       -0.17569
O         -0.05066       -2.73223       -0.69199
O          0.57459       -1.16242        1.11561
O          1.10905       -0.63566       -1.25474
H          0.89773        0.31989       -0.88553
C          2.52602       -2.48280       -0.10084
H          2.47840       -3.30186        0.61750
H          2.78214       -2.84830       -1.09532
H          3.19535       -1.68193        0.23517
S         -0.79505        1.98914       -0.03796
O          0.62989        1.64972       -0.37953
O         -1.07939        1.99978        1.39663
O         -1.73862        1.13738       -0.83017
H         -2.09808       -0.32709       -0.28865
C         -1.01527        3.64472       -0.65997
H         -0.31500        4.29415       -0.13433
H         -0.81430        3.64206       -1.73099
H         -2.04338        3.94510       -0.45682
N          3.34130        0.55505        0.91555
H          2.35463        0.76283        1.05491
C          3.89140        1.44788       -0.10300
H          3.77781        2.51796        0.12101
H          4.95615        1.23502       -0.24060
H          3.38795        1.25496       -1.05382
H          3.79727        0.71135        1.80830
N         -2.42107       -1.26302        0.09190
C         -3.64535       -1.66648       -0.62692
C         -2.58565       -1.11223        1.55638
H         -1.65962       -1.93192       -0.11552
H         -4.40512       -0.89569       -0.49131
H         -3.41320       -1.76798       -1.68698
H         -4.00628       -2.61811       -0.23279
H         -3.33612       -0.34370        1.74421
H         -2.89747       -2.06565        1.98641
H         -1.62917       -0.79641        1.97111
