26
2msa2a_36.log	Energy: -904642.9643491
S          2.07356       -0.01781       -0.26555
O          2.00912       -1.43417       -0.71889
O          2.02148        0.09324        1.21504
O          1.05883        0.84430       -0.93970
H         -0.41433        0.37093       -1.15042
C          3.64927        0.61750       -0.79437
H          3.70354        0.52381       -1.87889
H          3.71424        1.66254       -0.49105
H          4.42997        0.02687       -0.31501
S         -2.33764       -0.21719       -0.23433
O         -3.43943       -0.98223       -0.77689
O         -1.35311        0.09274       -1.42042
O         -1.58090       -0.80267        0.88999
H         -0.34829       -1.87790        1.19580
C         -2.89481        1.37679        0.30229
H         -3.36713        1.86268       -0.55197
H         -3.62236        1.20543        1.09697
H         -2.02480        1.93756        0.67102
N         -0.01198        2.65320        1.22539
H          0.17644        3.49993        1.75120
H          0.40480        2.75059        0.30392
H          0.49670        1.88938        1.66485
N          0.59223       -2.28939        1.39780
H          1.11401       -2.32873        0.49201
H          0.53260       -3.18375        1.87361
H          1.11344       -1.58167        1.93310
