38
2msa2dma_100.log	Energy: -1003284.3620027
S          3.22077       -1.00837       -0.03306
O          2.70170       -1.97833       -1.00458
O          2.34913       -0.79312        1.15126
O          3.59373        0.31387       -0.65109
H          2.45119        1.35300       -0.28378
C          4.76434       -1.66550        0.58718
H          4.55616       -2.62697        1.05756
H          5.44515       -1.79106       -0.25518
H          5.17396       -0.96254        1.31295
S         -1.63068       -0.03336       -0.32725
O         -0.84985        1.20909       -0.52875
O         -2.65066       -0.27855       -1.36814
O         -2.27894       -0.05269        1.04419
H         -3.71701       -0.18756        0.93522
C         -0.48529       -1.38831       -0.33180
H          0.02894       -1.40810       -1.29339
H          0.25040       -1.24232        0.46303
H         -1.04959       -2.30897       -0.18075
N          1.69253        2.04211        0.00876
C          1.76065        3.24203       -0.84363
C          1.83402        2.30664        1.45443
H          0.77563        1.57837       -0.15590
H          2.73615        3.71585       -0.72067
H          1.62821        2.94012       -1.88246
H          0.96773        3.93701       -0.56140
H          2.78635        2.81000        1.63194
H          1.00698        2.93429        1.79209
H          1.82787        1.34282        1.96422
N         -4.80905       -0.30926        0.79388
C         -5.03965       -1.64222        0.18977
C         -5.29238        0.81240       -0.04528
H         -5.24026       -0.26577        1.71558
H         -4.48558       -1.67133       -0.74926
H         -4.65173       -2.40416        0.86659
H         -6.10692       -1.79750        0.01891
H         -4.73527        0.77905       -0.98258
H         -6.36523        0.71046       -0.22155
H         -5.07990        1.75054        0.46805
