44
2msa2tma_32.log	Energy: -1052601.4446054
S         -0.92362        2.38952       -0.11891
O         -1.19953        1.75929       -1.52437
O         -0.72135        3.81154       -0.30326
O          0.14124        1.63747        0.56378
C         -2.43312        2.10631        0.77878
H         -2.31946        2.58226        1.75399
H         -3.24816        2.56916        0.22229
H         -2.56088        1.02550        0.87949
S         -1.71126       -1.69826       -0.53121
O         -1.68395       -1.00999        0.78970
O         -0.71166       -2.76822       -0.64978
O         -1.66486       -0.70634       -1.65316
H         -1.35990        0.73833       -1.51573
C         -3.31792       -2.46330       -0.67673
H         -3.41687       -3.20134        0.11976
H         -4.08058       -1.68953       -0.58630
H         -3.37368       -2.94424       -1.65340
N          2.96582       -0.23169       -0.96580
C          1.76545       -0.57444       -1.72142
H          1.47394       -1.61235       -1.53883
H          0.94149        0.06741       -1.40699
H          1.90633       -0.43763       -2.80875
C          3.28647        1.17940       -1.13485
H          2.44640        1.78925       -0.79087
H          4.17133        1.43546       -0.54149
H          3.49568        1.43570       -2.18947
C          4.08464       -1.07222       -1.35867
H          4.96665       -0.82903       -0.75706
H          3.83533       -2.12582       -1.19617
H          4.34955       -0.94659       -2.42515
N          0.98937       -0.56080        1.98535
C          2.16948        0.31024        2.22832
H          2.77784        0.28949        1.32235
H          1.82065        1.32316        2.42376
H          2.72119       -0.08651        3.08355
C          0.06139       -0.56892        3.14345
H         -0.26037        0.45595        3.33024
H         -0.79939       -1.18218        2.88232
H          0.58925       -0.96547        4.01335
C          1.40591       -1.93570        1.59931
H          0.53109       -2.48988        1.25998
H          2.12154       -1.84451        0.78218
H          1.87174       -2.40796        2.46728
H          0.45821       -0.13944        1.20242
