34
2msa1a1eda_48.log	Energy: -988710.7918966
S          2.60055        0.19323       -0.13519
O          1.62148        0.40211       -1.22015
O          2.80083       -1.24236        0.21740
O          2.29768        1.02996        1.06425
H          0.70626        1.67906        1.00041
C          4.18627        0.74683       -0.73522
H          4.09817        1.80218       -0.99386
H          4.92223        0.60333        0.05589
H          4.44175        0.15418       -1.61382
S         -1.93427       -1.53787       -0.20145
O         -3.37648       -1.30851       -0.17413
O         -1.48436       -2.95030       -0.11308
O         -1.20032       -0.72267        0.85275
H          0.13059       -1.75053        1.64370
C         -1.32637       -0.93409       -1.77230
H         -1.65828       -1.63651       -2.53756
H         -1.76596        0.04678       -1.95916
H         -0.23716       -0.86294       -1.73640
N          0.75998       -2.53376        1.39419
H          0.16017       -3.07047        0.73992
H          1.02820       -3.08581        2.20224
H          1.59960       -2.11238        0.91084
H         -0.21034        3.42454       -0.42350
H         -0.32507        1.83186       -1.19120
H         -2.52206        3.06703       -1.35301
H         -2.68847        1.61409       -0.36083
H         -2.61727        4.35689        0.62306
H         -3.59107        3.11493        1.05819
H         -0.74225        2.32107        1.66413
H         -0.72772        0.81938        0.90067
C         -0.70729        2.45124       -0.37851
C         -2.22412        2.60531       -0.40282
N         -0.32743        1.79455        0.89223
N         -2.64731        3.35578        0.78118
