35
2msa1a1tma_56.log	Energy: -978619.3030585
S          2.37415       -1.42795        0.01328
O          3.18497       -2.56000       -0.37567
O          1.25730       -1.23401       -1.07803
O          3.05424       -0.13702        0.23660
H          2.88462        1.42601       -0.33876
C          1.46450       -1.80643        1.49001
H          0.92322       -2.73630        1.31389
H          2.19349       -1.93005        2.29180
H          0.78326       -0.97565        1.69280
S         -0.38933        1.70700        0.21594
O          0.37847        2.95495        0.51700
O         -0.48280        0.76728        1.34042
O          0.19268        1.06882       -1.02311
H          0.79257       -0.32335       -1.01508
C         -2.03711        2.20288       -0.21730
H         -2.45989        2.72047        0.64468
H         -1.98130        2.86844       -1.07877
H         -2.60082        1.28844       -0.44055
N          2.68334        2.39726       -0.67333
H          3.49945        2.99459       -0.57716
H          1.84248        2.75509       -0.12258
H          2.38998        2.33460       -1.64653
N         -3.33734       -0.85241       -0.23330
C         -4.51083       -1.28208       -0.97109
H         -5.35178       -0.61656       -0.75289
H         -4.31009       -1.23892       -2.04587
H         -4.81432       -2.31661       -0.71865
C         -2.18112       -1.67520       -0.54973
H         -1.94567       -1.59647       -1.61484
H         -1.31789       -1.32014        0.01710
H         -2.34705       -2.74270       -0.30745
C         -3.58399       -0.82587        1.19915
H         -2.70055       -0.43374        1.71077
H         -4.43099       -0.16708        1.41658
H         -3.81544       -1.82886        1.60643
