37
2msa1ma1eda_164.log	Energy: -1013361.6190577
S          2.56471       -0.79956       -0.32679
O          1.62599       -1.92058       -0.47741
O          2.69596       -0.25783        1.02292
O          2.23210        0.32903       -1.35092
H          1.26663        0.72790       -1.15786
C          4.15176       -1.31489       -0.92922
H          4.49763       -2.11044       -0.26878
H          4.03022       -1.68027       -1.94836
H          4.82758       -0.46093       -0.89251
S         -0.40824        2.12027        0.25748
O         -1.33814        3.14941       -0.18777
O         -0.03206        1.16276       -0.86457
O         -0.85464        1.32979        1.43741
H         -0.77626       -0.34053        1.21147
C          1.12273        2.90161        0.73528
H          1.50926        3.44766       -0.12590
H          0.89493        3.58856        1.55083
H          1.82288        2.13008        1.06097
N         -0.68324       -1.38014        1.12895
H         -1.61193       -1.78280        0.83948
C         -0.17304       -1.94014        2.39626
H         -0.06708       -3.02105        2.30010
H          0.79902       -1.49293        2.60573
H         -0.87159       -1.70355        3.19884
H         -0.00562       -1.56619        0.37503
H         -4.85003       -1.64876       -0.97973
H         -4.61290       -1.13015        0.69838
H         -4.14192        0.69383       -0.96610
H         -2.78444        0.33962        0.08196
H         -2.96800       -0.23932       -2.74506
H         -1.67720        0.20738       -1.83170
H         -3.53717       -3.26187        0.24785
H         -2.62423       -2.53762       -0.91555
C         -4.09433       -1.33647       -0.24344
C         -3.38894       -0.07009       -0.73213
N         -3.09208       -2.39037       -0.02079
N         -2.50555       -0.38247       -1.85502
