40
2msa1dma1eda_131.log	Energy: -1038024.0195454
S         -2.56382       -1.22917       -0.47145
O         -3.44871       -2.35258       -0.75374
O         -1.51527       -1.50649        0.56622
O         -3.28368        0.04088       -0.10807
H         -2.58689        0.94346        0.87819
C         -1.67546       -0.83244       -1.97026
H         -1.10192       -1.70918       -2.27576
H         -2.41447       -0.58851       -2.73409
H         -1.01809        0.01962       -1.78506
S          1.55929        1.40941       -0.78756
O          0.22521        2.02633       -0.92082
O          1.71892        0.17282       -1.61025
O          1.94219        1.15725        0.63227
H          1.32228       -0.94212        1.08174
C          2.74116        2.57875       -1.43625
H          2.49812        2.75880       -2.48361
H          2.66141        3.49989       -0.85850
H          3.73830        2.14847       -1.34172
N         -2.25710        1.64671        1.63546
C         -2.12290        2.98761        1.01714
C         -1.01833        1.15971        2.28990
H         -3.01659        1.65458        2.31514
H         -1.32918        2.92924        0.27019
H         -3.06929        3.24587        0.54115
H         -1.87060        3.72212        1.78481
H         -0.19680        1.22982        1.57566
H         -0.79832        1.77954        3.16182
H         -1.17169        0.11923        2.57572
H          3.72979       -1.87500       -0.48257
H          4.15332       -3.10408        0.71644
H          1.87906       -3.48288       -0.30962
H          1.82367       -3.27961        1.46029
H          1.30700       -1.12383       -0.53205
H          0.10104       -1.84839        0.40713
H          4.57618       -1.24575        1.94593
H          3.40746       -0.32286        1.24409
C          3.48667       -2.26012        0.51841
C          2.05280       -2.78621        0.51359
N          3.63719       -1.26041        1.57067
N          1.12790       -1.64369        0.35799
