42
2msa2eda_381.log	Energy: -1072755.1097516
S          2.73956       -0.80274       -0.49952
O          3.23902       -2.15980       -0.30287
O          3.73630        0.27131       -0.68006
O          1.79554       -0.37700        0.63578
H          2.19610        1.06844        1.02912
C          1.68615       -0.80934       -1.93967
H          2.29073       -1.11626       -2.79392
H          0.87628       -1.51435       -1.74667
H          1.28025        0.19168       -2.09064
S         -2.69232        0.54469       -0.50277
O         -3.10259       -0.82897       -0.85104
O         -1.78510        1.19161       -1.46281
O         -2.15855        0.61815        0.91245
H         -1.23489       -0.66684        1.42405
C         -4.18774        1.52452       -0.46453
H         -4.63241        1.48835       -1.45946
H         -4.86610        1.09689        0.27399
H         -3.92578        2.54993       -0.20170
H          2.29865        3.96330        0.27127
H          2.58911        2.55658       -0.79451
H          0.17095        3.46974       -0.89214
H          0.29257        1.76785       -0.51168
H         -0.53324        3.85345        1.28561
H         -0.94788        2.26209        1.21044
H          3.38102        2.19123        1.48985
H          1.76809        2.38562        2.00063
C          2.02249        2.92550        0.06176
C          0.51405        2.76536       -0.12712
N          2.39939        2.10246        1.24060
N         -0.16563        2.91715        1.16216
H          0.12036       -3.30181        1.90061
H         -1.40752       -2.90630        2.72660
H         -1.80638       -4.21849        0.64840
H         -2.56766       -2.62378        0.59135
H         -0.50616       -3.56440       -1.12215
H         -1.50838       -2.24145       -1.24391
H         -0.14596       -0.95670        2.65928
H          0.35074       -1.12982        1.10421
C         -0.81460       -2.74091        1.82276
C         -1.60441       -3.14218        0.58042
N         -0.45475       -1.30015        1.75252
N         -0.89056       -2.76748       -0.63177
