26
2msa2a_85.log	Energy: -904632.7695102
S          1.57513       -0.82850       -0.20155
O          3.00297       -1.25556       -0.26666
O          1.19372        0.08056       -1.30824
O          1.25784       -0.23991        1.14141
H          2.81828        0.56505        1.72751
C          0.58529       -2.29726       -0.35837
H          0.80203       -2.74136       -1.33019
H          0.86236       -2.97764        0.44690
H         -0.46746       -2.01741       -0.28608
S         -2.96619        0.15638        0.18809
O         -2.61833       -1.22530       -0.07482
O         -3.79038        0.49963        1.33719
O         -3.74430        0.73379       -1.12478
H         -4.63732        0.98030       -0.84516
C         -1.50211        1.14905        0.14328
H         -0.84572        0.79638        0.94299
H         -0.99736        0.98654       -0.81085
H         -1.79044        2.19011        0.28550
N          3.77494        0.74582        1.36258
H          4.45698        0.95811        2.08270
H          3.67554        1.50302        0.61549
H          3.96666       -0.13368        0.84349
N          3.15359        2.32429       -0.83638
H          2.71514        3.23549       -0.74639
H          2.43637        1.66466       -1.16496
H          3.85089        2.39713       -1.57111
