37
2msa1ma1eda_275.log	Energy: -1013359.2094527
S         -0.53670       -2.63725       -0.21970
O         -1.18465       -3.89616       -0.51811
O         -1.40300       -1.44611       -0.14567
O          0.58897       -2.40598       -1.28515
C          0.34348       -2.74259        1.32326
H         -0.39730       -2.97084        2.09067
H          1.07395       -3.54746        1.24134
H          0.82196       -1.77794        1.51298
S          2.32674        0.49938        0.12992
O          1.33576        0.44995        1.23668
O          2.11930        1.63631       -0.78792
O          2.42166       -0.81756       -0.57538
H          1.28219       -1.69855       -1.01159
C          3.92918        0.72114        0.87983
H          4.10649       -0.10539        1.56788
H          4.67651        0.73109        0.08648
H          3.91987        1.67179        1.41361
N         -3.86652        1.36371        1.13512
H         -3.91724        0.95461        2.06340
C         -4.38420        0.41608        0.13481
H         -5.41085        0.08500        0.33004
H         -4.35927        0.89005       -0.84998
H         -3.73262       -0.46091        0.09774
H         -4.43339        2.20524        1.16095
H         -0.13489        1.57368       -1.58019
H         -1.90615        1.72304       -1.69722
H         -0.70852        3.92372       -1.87257
H         -1.84404        3.88051       -0.51567
H          1.03344        3.35258       -0.19591
H          0.23510        4.71880        0.29655
H         -1.13458        0.25116        0.08528
H         -0.35206        1.51499        0.81007
C         -1.02922        1.96843       -1.09430
C         -0.89529        3.47227       -0.88615
N         -1.15608        1.27894        0.21175
N          0.13605        3.72935        0.10793
H         -2.06143        1.51105        0.67873
