37
2msa1ma1eda_442.log	Energy: -1013352.7801978
S          1.02550        1.93176        0.05966
O          1.83492        3.01879        0.59136
O          0.80676        0.81572        1.06332
O          1.52501        1.34708       -1.22049
H          1.60205       -0.26822       -1.22071
C         -0.60589        2.55793       -0.30095
H         -1.03502        2.95070        0.62137
H         -0.49733        3.35114       -1.04114
H         -1.20608        1.73841       -0.69938
S         -1.35525       -1.50994        0.13107
O         -0.29446       -2.50602        0.30785
O         -1.34805       -0.80928       -1.15672
O         -1.32493       -0.46878        1.30628
H         -0.45403        0.09818        1.24330
C         -2.93485       -2.25632        0.41035
H         -3.03009       -3.05732       -0.32394
H         -2.94873       -2.65659        1.42377
H         -3.69755       -1.48696        0.24579
N         -4.21846        0.51428       -0.77657
H         -3.35651        0.37908       -1.29882
C         -4.05640        1.55735        0.23521
H         -3.77351        2.54261       -0.16469
H         -4.99284        1.67278        0.78798
H         -3.28792        1.24488        0.94770
H         -4.94177        0.76430       -1.44150
H          3.58027       -2.49330       -1.06858
H          3.77230       -0.97652       -1.99724
H          4.89287       -0.95164        0.28983
H          3.73766        0.35643        0.03722
H          3.64533       -1.45611        2.10012
H          2.38039       -0.51346        1.61408
H          1.45487       -1.77203       -1.97218
H          1.43375       -1.70327       -0.32689
C          3.34300       -1.42726       -1.09965
C          3.82868       -0.72751        0.17203
N          1.86550       -1.29507       -1.17248
N          3.06105       -1.20743        1.31437
