37
2msa1ma1eda_33.log	Energy: -1013374.4323869
S          2.96647       -0.04375        0.09089
O          2.99128       -1.35295        0.79980
O          2.74344        1.12386        0.95880
O          1.98667       -0.08321       -1.05015
C          4.57933        0.14197       -0.64712
H          5.31678        0.14088        0.15579
H          4.74807       -0.69340       -1.32664
H          4.60029        1.08953       -1.18560
S         -2.57469       -0.83137       -0.14316
O         -2.26078       -2.01316       -0.96548
O         -2.94709        0.38993       -0.87362
O         -1.44333       -0.55277        0.83145
C         -3.96953       -1.26684        0.88357
H         -4.81083       -1.48016        0.22341
H         -3.70913       -2.14892        1.46894
H         -4.19741       -0.42395        1.53613
N          0.53631       -2.33861        0.07676
H         -0.18169       -1.69964        0.48761
H          0.60878       -2.05092       -0.90084
C          0.13499       -3.75283        0.21663
H          0.88471       -4.39165       -0.25028
H          0.06413       -3.99026        1.27802
H         -0.83575       -3.88046       -0.26153
H          1.46806       -2.11616        0.49509
H         -0.03023        3.16568       -1.53243
H         -1.34478        1.95774       -1.66316
H         -2.22265        4.08798       -0.73498
H         -2.35611        2.75120        0.40667
H         -0.39577        4.92916        0.55314
H         -1.37638        4.35020        1.72888
H          0.75316        1.08464       -0.63455
H          0.50812        2.14390        0.62422
C         -0.74545        2.55421       -0.97481
C         -1.64190        3.41210       -0.09324
N          0.02719        1.62640       -0.11893
N         -0.83111        4.08878        0.91724
H         -0.59288        0.91543        0.32640
