34
2msa1a1eda_119.log	Energy: -988705.4558008
S         -1.46364        1.61851        0.29003
O         -0.62622        1.61002        1.49713
O         -2.75416        0.91358        0.40994
O         -0.70025        1.10220       -0.91843
C         -1.82399        3.32199       -0.09826
H         -2.38125        3.74225        0.73926
H         -0.87839        3.84790       -0.23274
H         -2.41644        3.35022       -1.01271
S          2.62105        0.28742       -0.27046
O          3.98915        0.22951       -0.73965
O          1.83298       -0.94849       -0.22506
O          1.85716        1.34474       -1.16462
H          0.85331        1.27123       -1.05217
C          2.57281        1.02274        1.34832
H          3.05894        0.32759        2.03413
H          3.12258        1.96300        1.30320
H          1.52643        1.19001        1.61816
N         -3.80746       -1.45532       -1.06001
H         -4.20338       -1.30427       -1.98208
H         -3.70389       -0.54278       -0.60709
H         -4.48220       -1.99348       -0.52646
H         -0.09395       -1.23415        1.12727
H         -1.81205       -1.64238        1.25637
H         -0.21883       -3.48457        2.04793
H         -1.34126       -4.01508        0.78801
H          1.42351       -3.17536        0.21552
H          0.80083       -4.70095        0.07812
H         -0.80017       -0.66694       -0.91230
H         -0.35358       -2.28243       -1.16972
C         -0.87383       -1.90375        0.76511
C         -0.48334       -3.36289        0.98850
N         -1.01915       -1.65908       -0.69416
N          0.57697       -3.71451        0.04979
H         -2.01047       -1.82329       -0.99163
