32
2msa1a1dma_84.log	Energy: -953959.2487095
S         -3.11146       -0.77507        0.15235
O         -4.11718       -1.76933        0.47412
O         -2.58958        0.08454        1.21773
O         -3.66955        0.13689       -1.00407
H         -3.14393        1.04479       -1.03105
C         -1.72753       -1.58696       -0.62115
H         -1.26218       -2.22790        0.12832
H         -2.10956       -2.17663       -1.45471
H         -1.01618       -0.82921       -0.95520
S          1.26735        0.78920        0.24353
O          0.40553        1.14313       -0.90008
O          2.58880        1.45287        0.25311
O          1.44152       -0.71329        0.35834
H          2.81436       -1.09819        0.01077
C          0.39789        1.26514        1.72094
H          0.28867        2.35063        1.70100
H         -0.57946        0.77623        1.71664
H          0.99133        0.96011        2.58306
N         -2.28808        2.33295       -0.95979
H         -2.43258        3.03128       -1.68122
H         -1.30394        2.04652       -0.97027
H         -2.47745        2.75931       -0.05771
N          3.85679       -1.31102       -0.27231
C          4.73671       -0.80862        0.80865
C          4.10519       -0.66813       -1.58554
H          3.94856       -2.32190       -0.35739
H          4.52320        0.25412        0.93044
H          4.49461       -1.33662        1.73142
H          5.78382       -0.97094        0.54540
H          3.93410        0.40196       -1.46063
H          5.12889       -0.86587       -1.90929
H          3.39266       -1.06435       -2.30949
