40
2msa1dma1eda_528.log	Energy: -1038006.8319544
S         -0.65231        2.19900       -0.20338
O         -1.01321        3.58696       -0.45110
O          0.58076        1.74353       -0.94088
O         -1.75612        1.21475       -0.49855
H         -1.54452        0.40225       -1.79063
C         -0.30841        1.99628        1.53349
H          0.43407        2.74366        1.81572
H         -1.24161        2.14990        2.07607
H          0.07552        0.98846        1.70149
S          2.64671       -0.55058        0.36014
O          2.64428       -1.28796       -0.89953
O          1.56061       -0.83473        1.29598
O          2.74519        0.99804        0.09753
H          1.87223        1.35324       -0.32310
C          4.20708       -0.79583        1.17195
H          4.28301       -1.86054        1.39446
H          4.99896       -0.48633        0.49056
H          4.21924       -0.20615        2.08802
N         -2.63383       -0.58817        1.83776
C         -3.98775       -1.03534        1.59306
C         -1.74359       -1.64214        2.27432
H         -2.27255       -0.09240        1.02744
H         -4.44271       -1.38035        2.52888
H         -4.58711       -0.20464        1.21210
H         -4.06000       -1.87134        0.86784
H         -2.03661       -1.98677        3.27294
H         -1.74312       -2.53527        1.61541
H         -0.71661       -1.27286        2.32913
H          0.01335       -1.70528       -3.25011
H          0.65316       -0.45395       -2.14847
H          0.31928       -2.70011       -1.00296
H         -0.56240       -1.38054       -0.25883
H         -1.70918       -3.57007       -1.78501
H         -2.31917       -2.75545       -0.50543
H         -1.35567        0.23290       -3.47948
H         -2.19727       -0.93574       -2.59572
C         -0.18862       -1.11326       -2.35313
C         -0.50921       -2.00338       -1.15542
N         -1.39935       -0.28480       -2.60573
N         -1.80965       -2.64842       -1.37518
