26
2msa2a_17.log	Energy: -904651.3461750
S          2.44308       -0.01776        0.02715
O          3.84503       -0.05471       -0.32728
O          1.66729       -0.89757       -1.02905
O          1.78593        1.29590        0.13382
H          0.50010        2.09485       -0.78646
C          2.17788       -0.86786        1.56290
H          2.64107       -1.85096        1.47817
H          2.66180       -0.27880        2.34276
H          1.10031       -0.94980        1.72626
S         -1.78849       -0.85444        0.04587
O         -2.80647        0.19623        0.22899
O         -1.01666       -1.21834        1.23992
O         -0.86984       -0.49110       -1.11424
H          0.65898       -0.77243       -0.99949
C         -2.64599       -2.31679       -0.50620
H         -3.33733       -2.61317        0.28299
H         -3.18518       -2.07537       -1.42207
H         -1.90726       -3.09843       -0.68437
N         -2.15085        2.98222        0.87877
H         -1.68865        3.14976        1.76715
H         -2.56203        2.04422        0.91212
H         -2.90429        3.65657        0.79391
N         -0.44829        2.22201       -1.18341
H         -0.42035        2.76994       -2.03740
H         -1.08280        2.66166       -0.44633
H         -0.78760        1.25207       -1.36054
