35
2msa1a1tma_02.log	Energy: -978637.9089339
S          2.88662       -0.32115       -0.09729
O          2.90872        0.92187       -0.88524
O          2.64922       -1.55350       -0.90832
O          1.94169       -0.25546        1.05913
C          4.51976       -0.51627        0.60001
H          4.73349        0.35570        1.21869
H          4.53612       -1.42728        1.19865
H          5.23198       -0.58467       -0.22268
S         -2.62057       -0.78878       -0.10622
O         -2.15350       -2.06626       -0.70683
O         -2.99736        0.24944       -1.07852
O         -1.62688       -0.28604        0.90400
C         -4.08900       -1.19785        0.82231
H         -4.82707       -1.59032        0.12230
H         -3.82935       -1.94797        1.56916
H         -4.45886       -0.28980        1.29891
N          0.38155       -2.44709        0.24220
H          0.47652       -3.32644        0.74065
H          1.19473       -2.29950       -0.40419
H         -0.55004       -2.38939       -0.23111
H          0.46000       -1.65525        0.89699
N         -0.59886        2.10448        0.10367
C         -0.13412        1.96494       -1.30466
H          0.81403        1.42433       -1.31389
H         -0.90749        1.43208       -1.85941
H          0.01576        2.96447       -1.71988
C         -1.82797        2.93091        0.18261
H         -2.58142        2.48149       -0.46488
H         -2.18377        2.93282        1.21385
H         -1.59238        3.94945       -0.13410
C          0.47498        2.60714        0.99784
H          0.06396        2.72055        2.00200
H          1.28435        1.87672        1.00613
H          0.82431        3.57087        0.62091
H         -0.87758        1.14563        0.43455
