35
2msa1ma1dma_199.log	Energy: -978620.3446050
S          2.06977       -0.17770       -0.57236
O          2.08372       -1.64265       -0.83240
O          1.97489        0.12820        0.87765
O          1.02788        0.53631       -1.36776
H         -0.38519       -0.05643       -1.54904
C          3.62219        0.46796       -1.15439
H          3.70067        0.25396       -2.22015
H          3.62841        1.54308       -0.97357
H          4.42266       -0.02224       -0.60018
S         -2.32174       -0.46571       -0.57552
O         -3.41211       -1.34102       -0.95044
O         -1.29587       -0.45996       -1.76594
O         -1.60558       -0.76334        0.68195
H         -0.33149       -1.78468        1.08085
C         -2.87500        1.21295       -0.46555
H         -3.28655        1.48984       -1.43630
H         -3.64872        1.24087        0.30315
H         -2.00818        1.82606       -0.17321
N          0.56145       -2.26220        1.33742
H          1.10286       -2.35520        0.44925
C          0.34454       -3.53212        2.05535
H          1.30550       -4.00227        2.26294
H         -0.18295       -3.33673        2.98865
H         -0.25822       -4.18970        1.42979
H          1.10361       -1.56407        1.85790
N         -0.22714        2.45863        0.87289
C         -0.62299        2.77046        2.23464
C          0.53895        3.51965        0.24201
H          0.33254        1.60985        0.87184
H         -1.32282        3.61471        2.23349
H         -1.13695        1.90833        2.67002
H          0.22431        3.03882        2.88996
H         -0.09031        4.40861        0.11625
H          1.43021        3.81872        0.82215
H          0.86244        3.18440       -0.74674
