38
2msa1ma1tma_06.log	Energy: -1003297.1094371
S         -2.73074       -0.52566       -0.14691
O         -2.28636       -1.45002       -1.20064
O         -2.74377        0.91213       -0.55897
O         -1.96628       -0.70630        1.12585
C         -4.43179       -0.91047        0.22717
H         -4.48075       -1.94831        0.55729
H         -4.77401       -0.23805        1.01369
H         -5.01459       -0.76935       -0.68326
S          2.92093       -0.14143        0.01553
O          3.05023        1.30566        0.24794
O          1.93921       -0.47447       -1.06900
O          2.62988       -0.93624        1.24295
C          4.50693       -0.71043       -0.58003
H          4.73620       -0.17506       -1.50167
H          5.25169       -0.49320        0.18601
H          4.44503       -1.78327       -0.76352
N          0.28980       -2.13072        0.37123
H          0.63166       -1.59991       -0.45257
H          1.08017       -2.01372        1.02703
C         -0.03314       -3.53085        0.03935
H         -0.32983       -4.05739        0.94664
H         -0.85637       -3.52538       -0.67477
H          0.84408       -4.00999       -0.39570
H         -0.54699       -1.62986        0.74123
N         -0.58534        2.36925        0.02333
C          0.30605        2.29601       -1.16584
H          0.60029        1.25833       -1.32936
H         -0.24143        2.68099       -2.02699
H          1.20789        2.87919       -0.97293
C         -1.09043        3.74141        0.24802
H         -1.59749        4.08416       -0.65439
H         -1.79749        3.72781        1.07805
H         -0.25152        4.40107        0.48025
C          0.06237        1.81836        1.24268
H         -0.64314        1.88858        2.07044
H          0.29997        0.77227        1.06826
H          0.98690        2.36121        1.44132
H         -1.42775        1.76331       -0.18799
