38
2msa1ma1tma_58.log	Energy: -1003281.2870808
S         -0.97359        1.63735       -0.28208
O          0.40906        2.04643       -0.65330
O         -1.15256        1.36279        1.15322
O         -1.47421        0.51937       -1.14145
C         -1.98839        3.04067       -0.70526
H         -1.85827        3.24787       -1.76725
H         -3.02618        2.79022       -0.48249
H         -1.65809        3.88682       -0.10245
S          3.03037       -0.10418        0.21532
O          2.78433       -0.62152       -1.12851
O          2.43227       -0.84574        1.32175
O          2.66527        1.42046        0.30173
H          1.72489        1.62845       -0.05049
C          4.78137        0.02070        0.48901
H          5.21540        0.61093       -0.31727
H          4.94458        0.49278        1.45738
H          5.17643       -0.99554        0.48294
N         -3.49523       -0.53061        1.52299
H         -3.92203       -0.62795        2.43818
C         -4.46163        0.00443        0.56434
H         -4.91122        0.96418        0.85964
H         -3.95770        0.14915       -0.39620
H         -5.27370       -0.71469        0.41322
H         -2.71849        0.12492        1.61835
N         -1.00850       -2.01640       -0.46088
C         -2.30655       -2.69689       -0.68239
H         -3.00583       -2.32430        0.07009
H         -2.66153       -2.45619       -1.68550
H         -2.16330       -3.77588       -0.58425
C          0.01283       -2.41026       -1.46314
H         -0.37945       -2.19823       -2.45837
H          0.92411       -1.83184       -1.29969
H          0.21717       -3.47843       -1.35751
C         -0.52623       -2.20781        0.93188
H          0.39740       -1.64556        1.07607
H         -1.30378       -1.84958        1.60580
H         -0.34159       -3.27342        1.09088
H         -1.18291       -0.98494       -0.61181
