32
2msa2ma_103.log	Energy: -953961.8542982
S         -0.94325       -1.41222       -0.24292
O         -0.79677       -0.59554        0.98900
O         -0.27413       -0.76858       -1.41397
O         -2.37185       -1.72399       -0.53863
H         -3.26546       -0.33089       -0.35453
C         -0.12233       -2.96425        0.02542
H          0.93177       -2.74558        0.20694
H         -0.58553       -3.44860        0.88507
H         -0.24587       -3.56542       -0.87540
S          2.80411        0.19319        0.13037
O          4.06765        0.86426       -0.09505
O          2.73435       -1.26277        0.13419
O          1.77529        0.75563       -0.94730
H          1.04350        0.08750       -1.13371
C          2.10922        0.78327        1.66137
H          2.77652        0.45793        2.46061
H          2.06923        1.87223        1.61983
H          1.11685        0.34055        1.77179
N         -3.59930        0.62564       -0.05811
H         -2.78649        1.29527       -0.31235
C         -3.80918        0.63166        1.40725
H         -4.05226        1.64123        1.74086
H         -4.61462       -0.05437        1.66986
H         -2.87793        0.29327        1.86389
H         -4.43929        0.87625       -0.57345
N         -1.29039        2.01801       -0.54883
H         -0.76600        1.57450        0.20514
C         -1.02525        3.45995       -0.58882
H          0.03967        3.69095       -0.70318
H         -1.56676        3.90865       -1.42521
H         -1.38654        3.92341        0.33291
H         -0.92776        1.56627       -1.38691
