34
2msa1a1eda_209.log	Energy: -988701.4622113
S         -2.01247       -1.27352       -0.14231
O         -3.43393       -1.58788       -0.24769
O         -1.61383       -0.75588        1.20622
O         -1.52404       -0.34124       -1.22168
H         -1.74227        1.15333       -1.18752
C         -1.06801       -2.76200       -0.41239
H         -1.35149       -3.48284        0.35583
H         -1.32773       -3.14505       -1.39955
H         -0.00242       -2.52080       -0.36245
S          2.58177       -0.24564       -0.27929
O          4.01787       -0.09761       -0.49032
O          1.98622        0.77057        0.65398
O          2.15649       -1.62512        0.15065
H          1.37544       -1.53729        1.57581
C          1.77130        0.01328       -1.84973
H          2.00984        1.02296       -2.18850
H          2.16583       -0.72107       -2.55309
H          0.69549       -0.11879       -1.71418
N          0.81344       -1.04698        2.33178
H          1.21865       -0.10305        2.29274
H          0.89704       -1.47352        3.24816
H         -0.18036       -0.99079        1.99345
H         -2.44205        3.62412        0.34699
H         -2.80709        1.91849        0.74413
H         -0.79329        2.87946        2.02713
H         -0.48623        1.39931        1.10447
H          0.54400        4.02993        0.49329
H          1.17277        2.51627        0.24001
H         -2.55446        2.55879       -1.73823
H         -0.91142        2.65149       -1.32568
C         -2.06759        2.59734        0.31539
C         -0.71053        2.46466        1.01603
N         -1.83257        2.22693       -1.10473
N          0.32624        3.08624        0.19690
