38
2msa1ma1tma_44.log	Energy: -1003283.9807969
S         -1.74223       -1.44322        0.34257
O         -0.74259       -2.47496       -0.08821
O         -2.81230       -1.22208       -0.63921
O         -1.05228       -0.18881        0.75821
C         -2.49581       -2.10226        1.81810
H         -2.97563       -3.04586        1.55757
H         -1.71366       -2.25905        2.56118
H         -3.23299       -1.38275        2.17519
S          2.25311       -0.66330       -0.15455
O          2.36583        0.32715        0.91056
O          1.56494       -0.24277       -1.37762
O          1.65921       -2.00626        0.37407
H          0.64292       -2.15539        0.16082
C          3.89547       -1.19922       -0.57757
H          4.43869       -0.32279       -0.93193
H          4.36320       -1.60448        0.31948
H          3.82189       -1.95619       -1.35768
N          0.05923        2.29498        1.73181
H         -0.69947        1.75140        2.13126
C          0.56325        3.27704        2.68817
H          0.92029        2.84761        3.63572
H          1.39745        3.82394        2.23793
H         -0.21912        4.00675        2.92004
H          0.78403        1.60966        1.52124
N         -0.92396        1.58894       -1.34019
C         -1.12927        0.78802       -2.57626
H         -0.19005        0.29418       -2.82025
H         -1.89888        0.04084       -2.37653
H         -1.43726        1.46310       -3.37810
C         -2.18680        2.22105       -0.88253
H         -2.92511        1.43261       -0.73154
H         -1.97833        2.73093        0.05840
H         -2.52524        2.92777       -1.64379
C          0.16456        2.58614       -1.49413
H          0.29689        3.07515       -0.52815
H          1.07359        2.05408       -1.77118
H         -0.12448        3.29854       -2.27071
H         -0.67059        0.92394       -0.57565
