37
2msa1ma1eda_221.log	Energy: -1013362.0023280
S         -0.66830       -2.01938       -0.28577
O          0.13081       -1.77473       -1.49458
O         -2.10389       -1.69739       -0.39986
O         -0.07382       -1.31736        0.92376
C         -0.54403       -3.75775        0.09512
H         -0.97444       -4.31113       -0.73979
H          0.51065       -4.00524        0.21825
H         -1.09633       -3.95008        1.01485
S          2.87319        0.41912        0.27157
O          4.16404        0.87030        0.74686
O          1.76371        1.37637        0.21659
O          2.44191       -0.81165        1.16612
H          1.45958       -1.03177        1.05125
C          3.05015       -0.30447       -1.34387
H          3.32403        0.49756       -2.03066
H          3.84458       -1.04894       -1.28979
H          2.09728       -0.76382       -1.62096
N         -3.77623        0.30431        1.04409
H         -3.40518       -0.57842        0.68426
C         -4.80663        0.82207        0.13955
H         -5.66621        0.15088        0.02097
H         -5.16859        1.78724        0.50450
H         -4.36639        0.97849       -0.84879
H         -4.16914        0.11900        1.96117
H         -0.14968        1.11241       -1.12227
H         -1.90837        0.96742       -1.24868
H         -0.97161        3.20400       -2.05869
H         -2.19101        3.37629       -0.78853
H          0.70377        3.42060       -0.24337
H         -0.34654        4.68980       -0.11286
H         -0.66002        0.36075        0.92102
H         -0.70737        2.03618        1.17045
C         -1.09781        1.51019       -0.76080
C         -1.17638        3.01614       -0.99558
N         -1.16099        1.24299        0.69992
N         -0.26410        3.68205       -0.07150
H         -2.16190        1.10613        0.99954
