35
2msa1ma1dma_67.log	Energy: -978630.1347819
S         -1.52669        1.49622        0.05085
O         -0.77384        0.86292       -1.11362
O         -0.60742        1.86843        1.13669
O         -2.66396        0.64679        0.43408
C         -2.18729        3.01187       -0.61924
H         -1.35476        3.62999       -0.95588
H         -2.84825        2.76306       -1.44944
H         -2.73914        3.51169        0.17738
S          2.51467        0.16144       -0.20127
O          3.86928       -0.06214       -0.66216
O          1.67882       -1.00360        0.11604
O          1.77719        1.02724       -1.29505
H          0.76542        0.99275       -1.19027
C          2.53221        1.22238        1.22400
H          3.01770        0.67231        2.03124
H          3.10521        2.11382        0.96816
H          1.49705        1.47352        1.46800
N         -0.28682       -2.38023        1.76263
H         -0.36129       -3.30289        2.17877
C         -0.79332       -1.35101        2.68516
H         -0.30898       -1.38299        3.66860
H         -0.63014       -0.36490        2.24612
H         -1.87021       -1.47592        2.81790
H          0.69704       -2.20527        1.56572
N         -1.15689       -1.88649       -0.83775
C         -2.59912       -2.15521       -1.00383
C         -0.28552       -2.66603       -1.73909
H         -0.98244       -0.86840       -0.97698
H         -2.79906       -3.20005       -0.75710
H         -3.14616       -1.48486       -0.34110
H         -2.88620       -1.96079       -2.03902
H         -0.45319       -3.73116       -1.56593
H         -0.52166       -2.42276       -2.77671
H          0.75038       -2.40842       -1.51910
H         -0.87540       -2.09360        0.17232
