35
2msa1ma1dma_161.log	Energy: -978622.2478663
S          1.90440       -0.99792       -0.49573
O          0.86980       -0.82611       -1.56138
O          1.32018       -1.22587        0.83980
O          2.88446        0.12660       -0.50998
H          2.08214        1.44121        0.12945
C          2.82538       -2.45303       -0.94812
H          2.13339       -3.29529       -0.96312
H          3.25889       -2.28986       -1.93459
H          3.60422       -2.60430       -0.20062
S         -2.13503        0.78407       -0.61565
O         -2.58102        1.64214       -1.69855
O         -1.14677        1.36302        0.31567
O         -1.60451       -0.58875       -1.15894
H         -0.58615       -0.64117       -1.29123
C         -3.50944        0.22121        0.34652
H         -3.97111        1.10614        0.78594
H         -4.20422       -0.28171       -0.32660
H         -3.10371       -0.45847        1.10703
N         -1.53823       -1.86445        1.90765
H         -0.66238       -1.47435        1.56265
C         -1.83424       -3.09463        1.17472
H         -1.04096       -3.85495        1.22602
H         -2.75754       -3.54005        1.55889
H         -1.99643       -2.84752        0.12192
H         -1.39410       -2.07012        2.89079
N          1.43993        2.09517        0.64632
C          1.66170        3.49189        0.22674
C          1.60870        1.84468        2.09492
H          0.47438        1.80365        0.38607
H          2.68956        3.77774        0.45545
H          1.48809        3.56845       -0.84655
H          0.96603        4.14352        0.75745
H          2.62265        2.12015        2.38962
H          0.87824        2.43504        2.64995
H          1.44720        0.77952        2.26427
