38
2msa2dma_08.log	Energy: -1003304.2906241
S          2.63800        0.03296       -0.37288
O          2.53437       -1.02379       -1.38701
O          1.86733       -0.29854        0.87435
O          2.28713        1.39941       -0.85076
H          0.79610        1.87543       -0.20027
C          4.35054        0.12386        0.12338
H          4.64673       -0.85180        0.50915
H          4.93964        0.38325       -0.75668
H          4.45018        0.89019        0.89223
S         -2.63804       -0.03298       -0.37294
O         -2.53461        1.02374       -1.38711
O         -1.86718        0.29860        0.87416
O         -2.28717       -1.39941       -0.85081
H         -0.79588       -1.87537       -0.20042
C         -4.35050       -0.12390        0.12363
H         -4.64663        0.85174        0.50948
H         -4.93975       -0.38327       -0.75634
H         -4.45000       -0.89025        0.89248
N          0.00231        2.24780        0.37243
C         -0.64767        3.36215       -0.34784
C          0.54732        2.60399        1.69751
H         -0.68912        1.47263        0.50325
H          0.09960        4.12413       -0.57529
H         -1.09194        2.96334       -1.25914
H         -1.43503        3.78195        0.28059
H          1.27988        3.40468        1.58154
H         -0.26707        2.92975        2.34690
H          1.03083        1.71650        2.10645
N         -0.00220       -2.24779        0.37243
C          0.64788       -3.36214       -0.34774
C         -0.54749       -2.60396        1.69740
H          0.68921       -1.47264        0.50338
H         -0.09939       -4.12405       -0.57542
H          1.09240       -2.96331       -1.25890
H          1.43503       -3.78204        0.28088
H         -1.28003       -3.40465        1.58129
H          0.26678       -2.92972        2.34695
H         -1.03107       -1.71646        2.10623
