35
2msa1ma1dma_79.log	Energy: -978627.7545255
S          1.29399       -1.59171        0.11250
O          0.13575       -1.39481        1.06041
O          2.58328       -1.50609        0.81718
O          1.17304       -0.69185       -1.05658
C          1.13068       -3.25940       -0.49844
H          1.19853       -3.94121        0.34941
H          0.16248       -3.34933       -0.99224
H          1.94057       -3.44034       -1.20549
S         -2.73841        0.13615       -0.05646
O         -1.80779        0.90850       -0.88499
O         -3.15080        0.74985        1.19937
O         -2.18882       -1.31278        0.16958
H         -1.20902       -1.33022        0.54187
C         -4.18069       -0.25156       -1.01924
H         -4.68059        0.69319       -1.23467
H         -3.86254       -0.74269       -1.93806
H         -4.82350       -0.89996       -0.42446
N          3.42360        1.30012        0.33055
H          4.06064        1.82539        0.92055
C          3.93107        1.21823       -1.04562
H          4.92729        0.76540       -1.11420
H          3.23536        0.60861       -1.62740
H          3.97480        2.21928       -1.48547
H          3.35150        0.35286        0.71267
N          0.70789        1.85540        0.15281
C          0.44143        3.07021       -0.63816
C          0.13129        1.88194        1.51497
H          0.34696        1.03566       -0.35901
H          0.87358        3.93290       -0.12721
H          0.90146        2.95444       -1.62018
H         -0.63584        3.19199       -0.75106
H          0.61361        2.67997        2.08323
H         -0.94426        2.05171        1.45358
H          0.31598        0.91379        1.98234
H          1.76315        1.69975        0.23492
