41
2msa1dma1tma_92.log	Energy: -1027940.7258054
S          0.77681       -2.05932       -0.27319
O         -0.58467       -2.21628        0.24258
O          1.87302       -2.27305        0.68807
O          0.96747       -0.71471       -0.97188
C          0.98247       -3.26103       -1.57703
H          0.87752       -4.25009       -1.13017
H          0.20597       -3.09386       -2.32380
H          1.97349       -3.13769       -2.01390
S         -0.88266        2.09736       -0.39475
O         -0.34704        3.25950       -1.09153
O         -0.15820        1.66003        0.80315
O         -0.99650        0.87845       -1.39638
H         -0.26107        0.19852       -1.22412
C         -2.58655        2.35631        0.00186
H         -2.62240        3.19058        0.70371
H         -3.10907        2.60783       -0.92162
H         -2.95989        1.42078        0.44454
N         -3.18873       -0.71926        0.71290
C         -3.82053       -1.03209       -0.55858
C         -3.87296       -1.32667        1.84154
H         -2.22903       -1.05758        0.68356
H         -4.81919       -0.57944       -0.59774
H         -3.22270       -0.61027       -1.37128
H         -3.93451       -2.11561       -0.73493
H         -4.87140       -0.88619        1.95072
H         -3.99569       -2.41925        1.74086
H         -3.31529       -1.12753        2.76058
N          2.76762        0.75984        0.50900
C          3.96869        0.00169        0.07583
H          3.81214       -1.04775        0.32503
H          4.08065        0.11392       -1.00303
H          4.84564        0.40419        0.58749
C          2.84340        2.18666        0.10503
H          2.91503        2.24276       -0.98170
H          1.93654        2.69171        0.43189
H          3.72835        2.63351        0.56370
C          2.52366        0.60351        1.96823
H          1.60360        1.13115        2.21418
H          2.40834       -0.46102        2.17331
H          3.37469        1.02197        2.51060
H          1.95773        0.31478        0.01236
