37
2msa1ma1eda_354.log	Energy: -1013357.6232971
S         -0.81117       -1.69366       -0.14807
O         -1.95747       -2.57493       -0.28296
O         -0.83662       -0.44219       -0.92435
O          0.47542       -2.50619       -0.51313
H          1.30313       -1.90853       -0.61969
C         -0.59373       -1.28227        1.56607
H         -1.42319       -0.62945        1.84434
H         -0.61613       -2.21504        2.13016
H          0.36746       -0.77333        1.68073
S          2.94271        0.13367        0.00236
O          2.57927       -1.08981       -0.77204
O          2.14897        0.26717        1.24830
O          2.89292        1.37119       -0.81977
H          1.28334        2.05675       -0.49531
C          4.64717       -0.09508        0.46485
H          4.71486       -0.99889        1.07044
H          5.23172       -0.19792       -0.44933
H          4.96497        0.77946        1.03253
N         -4.00720       -0.37428        0.65209
H         -3.59824       -1.30556        0.68649
C         -4.42090       -0.10423       -0.72938
H         -5.19477       -0.78640       -1.10470
H         -4.79918        0.92034       -0.80663
H         -3.54676       -0.19818       -1.37815
H         -4.81730       -0.38720        1.26395
H         -0.34450        3.94656        0.01324
H         -0.49280        3.27087       -1.62214
H         -2.73559        3.45610       -0.46891
H         -2.31835        1.81237       -0.95281
H         -2.49328        2.79319        1.75453
H         -2.79200        1.28675        1.12577
H          0.29490        1.82416        0.82840
H         -0.04863        1.05719       -0.56334
C         -0.62721        3.05927       -0.55925
C         -2.05992        2.61652       -0.25791
N          0.29336        1.96356       -0.18491
N         -2.16283        2.09491        1.09955
