38
2msa2dma_170.log	Energy: -1003278.7132754
S         -0.83468       -1.49516       -0.28716
O         -2.02582       -2.22987        0.12449
O         -0.06671       -0.91480        0.88462
O         -1.08653       -0.40717       -1.27836
H         -0.59622        1.03089       -0.69422
C          0.27999       -2.64218       -1.07281
H          0.51541       -3.42706       -0.35319
H         -0.23729       -3.06056       -1.93657
H          1.17928       -2.10558       -1.38078
S          3.01006        0.11980        0.13394
O          2.47257        1.48104        0.31321
O          2.91423       -0.43167       -1.21060
O          2.38142       -0.84424        1.18786
H          1.33396       -0.92121        1.05733
C          4.69925        0.11903        0.67344
H          5.24730        0.77890        0.00046
H          4.73649        0.48817        1.69776
H          5.07654       -0.90099        0.60567
N         -4.41253       -0.15287        0.33268
C         -3.85529        0.06713        1.65476
C         -4.17143        0.95349       -0.57116
H         -3.99285       -0.99609       -0.04859
H         -4.33958        0.93611        2.11753
H         -4.04992       -0.80445        2.28384
H         -2.76412        0.23579        1.65444
H         -4.65371        1.85798       -0.17972
H         -3.09782        1.16822       -0.73023
H         -4.60956        0.73786       -1.54947
N         -0.20575        1.95536       -0.35966
C         -0.79228        2.30025        0.95380
C         -0.41714        2.96862       -1.41211
H          0.80853        1.79358       -0.21984
H         -1.86445        2.46098        0.83536
H         -0.62051        1.46064        1.62744
H         -0.31216        3.20253        1.33644
H         -1.48918        3.10060       -1.56635
H          0.03649        3.91333       -1.10794
H          0.04340        2.61432       -2.33426
