42
2msa2eda_74.log	Energy: -1072767.9202131
S         -2.43335        1.54255       -0.12258
O         -3.10203        0.51868       -0.95436
O         -1.72445        2.59921       -0.85823
O         -1.51463        0.88052        0.88621
C         -3.70889        2.32816        0.84631
H         -4.39659        2.81498        0.15424
H         -4.22444        1.56296        1.42689
H         -3.24143        3.06198        1.50287
S          2.45057       -1.62232        0.09062
O          1.64024       -2.56696        0.87658
O          3.27047       -0.67010        0.85706
O          1.57857       -0.88974       -0.91514
C          3.56851       -2.59605       -0.90513
H          4.21093       -3.16057       -0.22871
H          2.97844       -3.27144       -1.52476
H          4.16050       -1.92216       -1.52456
H         -1.30294       -3.62300       -0.53366
H         -0.78792       -3.00903        1.05429
H         -3.20986       -3.74845        1.00354
H         -3.03923       -2.04517        1.43405
H         -4.66302       -2.86992       -0.49815
H         -3.86688       -1.43897       -0.65926
H         -0.05902       -1.50997       -0.69454
H         -1.65952       -1.34178       -1.21514
C         -1.45758       -2.83889        0.21016
C         -2.92618       -2.76769        0.61145
N         -1.06093       -1.55151       -0.41039
N         -3.74714       -2.44438       -0.55115
H         -1.20606       -0.75433        0.24310
H          1.58516        3.02366        1.53688
H          2.27237        1.38026        1.71579
H          4.01944        2.97799        0.94932
H          3.70403        1.70026       -0.22443
H          2.81542        4.48864       -0.45285
H          3.57683        3.56002       -1.56507
H          0.10412        1.46728        0.49864
H          0.87565        2.35050       -0.68835
C          2.03384        2.17649        1.01029
C          3.27664        2.59504        0.23697
N          1.02531        1.66125        0.05548
N          2.90219        3.54372       -0.81063
H          1.33921        0.76372       -0.37932
