32
2msa1a1dma_107.log	Energy: -953954.1591810
S          1.50904       -0.02749       -0.17038
O          0.79028       -0.45329        1.03827
O          2.46577       -1.06233       -0.69013
O          2.22804        1.28262       -0.00158
H          3.87786        0.94410        0.12394
C          0.30228        0.22760       -1.45184
H         -0.22214       -0.71307       -1.62410
H         -0.40549        0.98204       -1.10684
H          0.81955        0.55708       -2.35290
S         -3.22235       -0.62949       -0.10594
O         -2.69422       -1.31422       -1.27100
O         -4.65766       -0.69609        0.17426
O         -2.81143        0.90489       -0.20456
H         -3.60098        1.50219        0.05416
C         -2.32527       -1.16750        1.32818
H         -2.51184       -2.23710        1.43465
H         -1.25988       -0.96905        1.17687
H         -2.70579       -0.62411        2.19324
N         -5.00460        2.25390        0.42490
H         -5.35461        2.88679       -0.28653
H         -5.06440        2.72074        1.32349
H         -5.60144        1.42874        0.44678
N          4.63078        0.20459        0.12723
C          4.93333       -0.16649        1.52392
C          5.79258        0.57949       -0.69445
H          4.05038       -0.55520       -0.31385
H          5.40545        0.67722        2.02991
H          3.99379       -0.41612        2.01850
H          5.60026       -1.03012        1.53600
H          6.28125        1.45224       -0.25793
H          6.49715       -0.25300       -0.73541
H          5.44698        0.81760       -1.70054
