40
2msa1dma1eda_87.log	Energy: -1038030.7024460
S         -1.63029       -1.26405       -0.89240
O         -0.59248       -2.22089       -1.29127
O         -1.65573       -0.00033       -1.67917
O         -1.57293       -0.95917        0.58481
H         -1.06397        1.06898        0.94712
C         -3.21438       -2.03935       -1.16197
H         -3.30321       -2.25366       -2.22726
H         -3.24813       -2.96114       -0.58097
H         -3.99839       -1.35108       -0.84506
S          2.76285        0.88092       -0.42416
O          3.98447        1.67567       -0.43979
O          1.71337        1.38760        0.52989
O          2.96944       -0.58302       -0.19616
H          1.77571       -1.26138        0.62723
C          2.01524        1.00187       -2.04637
H          1.82456        2.05565       -2.25650
H          2.72506        0.60050       -2.77028
H          1.09017        0.42116       -2.06425
N          1.09674       -1.70479        1.31303
C          1.38721       -1.13910        2.64620
C          1.22458       -3.17312        1.22040
H          0.13824       -1.43364        1.02808
H          2.39297       -1.43780        2.94530
H          1.35047       -0.05224        2.56424
H          0.65411       -1.50350        3.36828
H          2.26153       -3.44921        1.41727
H          0.56468       -3.64338        1.95213
H          0.93626       -3.46949        0.21213
H         -3.48707        2.18627       -0.43994
H         -3.77465        3.41255        0.80061
H         -1.54233        3.69077       -0.32564
H         -1.40282        3.42794        1.43141
H         -1.09719        1.31553       -0.64761
H          0.18085        1.92020        0.28630
H         -4.25691        1.54790        2.00373
H         -3.14441        0.58667        1.26623
C         -3.16982        2.53572        0.55374
C         -1.70999        2.97836        0.48521
N         -3.33008        1.52994        1.59934
N         -0.86131        1.79304        0.24802
