26
2msa2a_25.log	Energy: -904648.8364383
S         -2.21663       -0.12176       -0.02728
O         -1.82541       -1.52186       -0.22359
O         -2.46629        0.68080       -1.23306
O         -1.20242        0.60650        0.86198
C         -3.71382       -0.12209        0.94237
H         -4.48322       -0.62813        0.35836
H         -3.52138       -0.65805        1.87169
H         -3.99843        0.91122        1.14012
S          1.86240       -0.83097       -0.09653
O          3.28413       -0.83432        0.19431
O          1.40454       -0.07318       -1.26615
O          1.14741       -0.27325        1.20196
H          0.16198       -0.01990        1.05599
C          1.24578       -2.48701       -0.24045
H          1.71262       -2.92482       -1.12345
H          1.52998       -3.02957        0.66106
H          0.15979       -2.42372       -0.35223
N          0.06951        2.31841       -0.84722
H         -0.57252        1.86761       -0.15669
H          0.93244        2.65421       -0.34185
H          0.36912        1.54509       -1.45406
H         -0.41712        3.03623       -1.37440
N          2.44688        2.59461        0.65087
H          2.83601        3.41434        1.10561
H          3.18800        2.17347        0.09526
H          2.22816        1.91168        1.37475
