35
2msa1ma1dma_242.log	Energy: -978619.6848855
S          3.28071       -0.16496       -0.36225
O          4.59160       -0.41666       -0.95513
O          2.10670       -0.50180       -1.20770
O          3.12598        1.24639        0.16590
H          1.77822        1.71503       -0.18370
C          3.15065       -1.19240        1.09843
H          3.25820       -2.23379        0.79065
H          3.95557       -0.91659        1.78043
H          2.17589       -1.01738        1.55872
S         -1.13003       -0.75926        0.55181
O         -0.28470       -0.25975        1.63792
O         -1.35488        0.24459       -0.53875
O         -2.47630       -1.26769        1.02322
H         -3.58745       -0.62833        0.35955
C         -0.32620       -2.15968       -0.18760
H          0.61644       -1.80089       -0.61515
H         -0.15939       -2.89921        0.59649
H         -0.98231       -2.56028       -0.96102
N          0.78218        2.11808       -0.41009
H          0.86998        2.68916       -1.24682
C          0.27858        2.88284        0.74713
H         -0.68207        3.34432        0.51130
H          0.15530        2.17913        1.57050
H          1.00654        3.64836        1.01677
H          0.14539        1.32982       -0.61956
N         -4.39939       -0.11048       -0.18758
C         -4.26118       -0.44438       -1.62456
C         -4.28269        1.33790        0.09814
H         -5.28411       -0.46595        0.17087
H         -3.25557       -0.15063       -1.92912
H         -4.37921       -1.52127       -1.74753
H         -5.01715        0.08533       -2.20774
H         -3.28430        1.64688       -0.21398
H         -5.05178        1.89121       -0.44475
H         -4.39072        1.49311        1.17185
