40
2msa1dma1eda_234.log	Energy: -1038020.4038233
S          1.28941       -1.58858       -0.84853
O          0.09333       -1.09411       -1.61953
O          0.91204       -2.17534        0.44962
O          2.32017       -0.52991       -0.74372
C          1.98386       -2.88387       -1.85632
H          1.23725       -3.67184       -1.95631
H          2.23372       -2.46063       -2.82909
H          2.87681       -3.25736       -1.35479
S         -2.71529        0.00725        0.00517
O         -3.09452        1.13033       -0.83839
O         -1.73290        0.28536        1.06516
O         -2.26230       -1.22673       -0.83653
H         -1.25964       -1.18752       -1.13264
C         -4.16880       -0.67186        0.76635
H         -4.86313       -0.95916       -0.02288
H         -3.87429       -1.53253        1.36583
H         -4.59756        0.11282        1.39021
N          1.02421        3.00501       -0.98303
C         -0.01336        2.40985       -1.83504
C          2.36736        2.83035       -1.54213
H          0.83217        3.99437       -0.86143
H          0.15996        1.33146       -1.91005
H         -0.99857        2.56272       -1.38871
H         -0.01068        2.82940       -2.85123
H          2.58986        1.75987       -1.58897
H          2.46237        3.25221       -2.55344
H          3.10304        3.31024       -0.89061
H          2.09187        1.91924        2.64057
H          0.32681        2.13830        2.80209
H          1.18688        0.42923        4.37967
H          0.03759       -0.26909        3.23125
H          2.39884       -1.34886        3.68608
H          1.79308       -1.37100        2.16332
H          0.97429        1.99341        0.43419
H          1.67403        0.50270        0.71041
C          1.11777        1.44211        2.51109
C          1.04748        0.15649        3.32892
N          0.94657        1.14257        1.07268
N          2.10337       -0.75964        2.91844
H          0.02778        0.69241        0.92356
