43
2msa1eda1tma_216.log	Energy: -1062673.9283841
S          0.54278       -1.59961        0.10827
O         -0.28612       -0.86290        1.10563
O          1.61373       -2.40969        0.71505
O          1.09866       -0.64110       -0.91092
H          2.56947       -0.18662       -0.35437
C         -0.54727       -2.68724       -0.77869
H         -0.96420       -3.39355       -0.05953
H         -1.33660       -2.08521       -1.23351
H          0.04345       -3.20981       -1.53122
S         -3.61207       -0.11279       -0.06187
O         -4.98912       -0.56021       -0.00198
O         -2.80355       -0.41784       -1.24016
O         -2.88837       -0.69248        1.22961
H         -1.89228       -0.73479        1.12573
C         -3.55629        1.64278        0.21331
H         -4.14378        2.10579       -0.58130
H         -4.00256        1.84591        1.18673
H         -2.50947        1.95728        0.14520
H          1.47138        2.66179       -1.34936
H          0.20858        3.89701       -1.28894
H          1.54264        3.95668        0.74538
H         -0.14647        3.53200        1.08551
H          1.36356        2.10960        2.27608
H          0.61858        1.19160        1.17215
H         -0.95966        2.05061       -1.96405
H         -0.16432        1.01370       -1.00105
C          0.52653        2.94305       -0.85431
C          0.78744        3.16862        0.63035
N         -0.53392        1.96181       -1.04849
N          1.29370        1.95149        1.27473
N          3.60709       -0.09404       -0.15686
C          4.03411        1.23278       -0.65457
H          3.80553        1.30189       -1.71907
H          3.46913        1.98559       -0.10320
H          5.10844        1.35128       -0.49379
C          3.81663       -0.22217        1.30838
H          3.29536        0.60676        1.78594
H          3.38341       -1.16967        1.62963
H          4.88937       -0.18391        1.51397
C          4.23784       -1.21511       -0.89492
H          3.80423       -2.14405       -0.52294
H          4.01343       -1.10590       -1.95625
H          5.31771       -1.19296       -0.73095
