34
2msa1a1eda_51.log	Energy: -988709.3888733
S          1.71868       -1.85874        0.20132
O          2.67846       -2.95561        0.20152
O          0.89228       -1.77110       -1.05799
O          2.29640       -0.50838        0.47905
H          1.38598        0.58789       -0.34271
C          0.54519       -2.15129        1.51845
H          1.10522       -2.19275        2.45345
H         -0.17863       -1.33359        1.54400
H          0.05362       -3.10862        1.33804
S         -2.41081        0.43087        0.25485
O         -1.47152        0.76226        1.33706
O         -2.93740       -0.96236        0.30220
O         -1.83845        0.73838       -1.10065
H         -1.81467       -2.87874       -2.28286
C         -3.83349        1.49033        0.44207
H         -4.27558        1.28790        1.41784
H         -3.49845        2.52594        0.38024
H         -4.54173        1.26460       -0.35502
N         -1.57860       -2.03758       -1.76633
H         -1.70600       -1.19835       -2.33399
H         -0.55526       -2.03925       -1.43729
H         -2.19348       -1.88239       -0.93250
H          0.33251        3.32368        0.07020
H          0.61090        2.06528        1.28839
H          2.54590        3.68070        1.21709
H          3.03579        2.04895        0.73858
H          2.68102        4.33175       -1.05119
H          3.88434        3.22276       -1.00898
H         -0.11900        1.18511       -0.88983
H          1.34127        1.77979       -1.52837
C          0.97951        2.48824        0.35383
C          2.43972        2.91568        0.43737
N          0.86756        1.44086       -0.68680
N          2.88768        3.35270       -0.88737
