29
2msa1a1ma_113.log	Energy: -929295.5708008
S         -2.34855       -0.54414        0.16076
O         -2.73419        0.59457       -0.69590
O         -2.11372       -0.24104        1.56380
O         -1.13352       -1.29321       -0.47395
H         -0.31292       -0.64468       -0.58350
C         -3.60037       -1.79020        0.00540
H         -3.73496       -2.01615       -1.05163
H         -3.27395       -2.66899        0.56096
H         -4.51224       -1.37636        0.43667
S          1.56852        1.00976        0.24546
O          2.98280        0.99422       -0.11184
O          0.69136        0.34506       -0.80047
O          1.00886        2.37766        0.50455
H         -0.18028        2.63812       -0.41862
C          1.34769        0.07631        1.74222
H          1.75880       -0.92136        1.55829
H          1.90969        0.58770        2.52480
H          0.28387        0.04716        1.98497
N         -0.97358        2.69258       -1.15508
H         -0.55438        2.47800       -2.05760
H         -1.40704        3.61127       -1.17611
H         -1.67850        1.95493       -0.94577
N          3.30513       -2.09607        0.14034
H          3.69069       -1.16210        0.02388
C          2.72732       -2.55796       -1.12014
H          3.45425       -2.68126       -1.93724
H          2.22374       -3.51703       -0.96378
H          1.97620       -1.83407       -1.44622
H          4.05599       -2.70779        0.44024
