26
2msa2a_72.log	Energy: -904636.3542710
S         -1.84498       -0.58778       -0.23627
O         -0.86253       -0.34223       -1.27909
O         -3.07024       -1.31206       -0.56153
O         -2.25022        0.81490        0.39576
H         -3.28783        0.90798        0.43846
C         -1.03321       -1.39517        1.12252
H         -0.75474       -2.39065        0.77285
H         -0.14380       -0.81805        1.38598
H         -1.73457       -1.46589        1.95353
S          2.88775       -0.00049        0.07913
O          4.01907       -0.34371        0.91977
O          3.04887        0.98009       -0.99100
O          1.69231        0.46361        1.00595
H          1.15060        1.25042        0.53778
C          2.25004       -1.50314       -0.63805
H          3.00217       -1.86905       -1.33817
H          2.09894       -2.22701        0.16362
H          1.31489       -1.27404       -1.15184
N         -4.85571        0.90093        0.37823
H         -5.24976        1.60323       -0.23997
H         -5.34934        0.94739        1.26384
H         -5.02032       -0.01458       -0.03696
N          0.38506        2.30901       -0.20759
H          0.66697        3.25646        0.01982
H         -0.62092        2.21035       -0.09407
H          0.61882        2.13124       -1.18082
