42
2msa2eda_440.log	Energy: -1072752.4859714
S         -2.35268       -1.06486       -0.43509
O         -3.78645       -1.11207       -0.70446
O         -1.94240       -1.29268        0.96533
O         -1.73497        0.25432       -0.92331
H         -1.58589        1.24138        0.33524
C         -1.55411       -2.31321       -1.42909
H         -1.94078       -3.27915       -1.10180
H         -1.82137       -2.14137       -2.47285
H         -0.47127       -2.26242       -1.28088
S          2.26407       -1.33775        0.17057
O          3.68911       -1.50400        0.43655
O          1.78151       -1.83118       -1.14560
O          1.79244        0.09749        0.35829
H          1.24099        0.50204       -1.13685
C          1.37275       -2.27572        1.40344
H          1.65485       -3.32217        1.28093
H          1.67541       -1.92129        2.39010
H          0.29873       -2.14403        1.25126
H         -1.88929        2.18434        3.16857
H         -2.41766        0.61929        2.45911
H         -0.26013        0.41701        3.81195
H         -0.15140       -0.09657        2.12345
H          1.13860        2.20517        3.29210
H          1.54437        1.26783        1.98137
H         -2.24641        2.67439        0.92261
H         -0.58764        2.41322        1.09368
C         -1.63809        1.38103        2.47058
C         -0.27026        0.77011        2.77531
N         -1.52894        1.97830        1.10918
N          0.78176        1.73834        2.46759
H         -0.66481        2.75118       -1.50616
H          0.33516        3.89150       -2.40789
H          0.20935        1.81714       -3.64267
H          1.87380        2.00548       -3.02449
H         -0.26878        0.33560       -1.78192
H          1.09637       -0.24841       -2.57496
H          1.12963        3.99044       -0.18454
H          1.42638        2.36696       -0.11205
C          0.37174        2.97028       -1.81879
C          0.82996        1.85104       -2.74418
N          1.31883        3.16276       -0.73412
N          0.71888        0.54602       -2.05538
