44
2msa2tma_13.log	Energy: -1052604.3267877
S          0.53377        2.14211        0.19082
O          1.61461        1.81315       -0.79372
O          0.81375        1.65028        1.54898
O         -0.80127        1.73793       -0.32650
C          0.51030        3.92432        0.27138
H          1.48156        4.25650        0.63860
H          0.32222        4.31611       -0.72824
H         -0.28118        4.21988        0.96044
S          2.39320       -1.43725        0.19577
O          3.17913       -2.62393       -0.07856
O          0.98930       -1.41707       -0.23135
O          3.13864       -0.20973       -0.45145
H          2.52360        0.59877       -0.55722
C          2.43222       -1.08255        1.93641
H          1.92942       -1.90793        2.44252
H          3.47702       -1.02239        2.24149
H          1.90844       -0.13662        2.09494
N         -2.78752       -0.75187        1.10067
C         -3.32053        0.56245        1.43564
H         -2.59039        1.32637        1.15952
H         -4.24612        0.74123        0.87676
H         -3.55169        0.65519        2.51307
C         -3.76521       -1.79259        1.37191
H         -4.67102       -1.62361        0.77970
H         -3.35398       -2.77217        1.10489
H         -4.05565       -1.83050        2.43871
C         -1.54884       -1.00512        1.82960
H         -1.10299       -1.94442        1.48812
H         -0.83251       -0.20185        1.64296
H         -1.72196       -1.07257        2.92006
N         -1.32163       -0.49312       -1.82508
C         -1.54488       -1.95680       -1.72046
H         -0.60928       -2.42648       -1.42300
H         -2.30692       -2.11970       -0.95953
H         -1.87917       -2.32724       -2.69229
C         -2.58215        0.22542       -2.13772
H         -3.30045       -0.01091       -1.35315
H         -2.37474        1.29424       -2.13623
H         -2.94406       -0.10650       -3.11332
C         -0.24416       -0.16033       -2.79504
H         -0.03682        0.90631       -2.71925
H          0.64806       -0.71789       -2.51596
H         -0.58120       -0.43164       -3.79785
H         -1.01153       -0.11864       -0.90993
