22
2msa1a_27.log	Energy: -869133.8816846
S         -2.61871        0.06164       -0.07162
O         -1.78806       -0.34831       -1.18576
O         -3.72852       -0.76847        0.36675
O         -3.24805        1.51690       -0.45178
H         -4.21029        1.44611       -0.37715
C         -1.58777        0.50439        1.29971
H         -1.05023       -0.39594        1.60446
H         -0.86770        1.24786        0.95707
H         -2.22448        0.88467        2.09775
S          1.88167       -0.69553        0.16085
O          1.08976       -1.28059        1.22881
O          3.33906       -0.79014        0.21594
O          1.48754        0.83971        0.04171
H          2.33238        1.41871       -0.07748
C          1.31220       -1.35695       -1.38620
H          1.51122       -2.42925       -1.36482
H          0.24217       -1.15827       -1.46633
H          1.86627       -0.87786       -2.19339
N          3.76035        2.14706       -0.18094
H          3.93760        2.83506        0.54371
H          4.00671        2.55936       -1.07478
H          4.36620        1.34486       -0.01663
