41
2msa1dma1tma_100.log	Energy: -1027939.2533544
S         -0.26694       -2.09616       -0.28846
O         -0.46824       -3.46265        0.17571
O          0.40783       -1.22010        0.74122
O         -1.50747       -1.41925       -0.78629
H         -2.36127       -0.33973       -0.04177
C          0.83559       -2.11912       -1.68645
H          1.77169       -2.57949       -1.36753
H          0.36754       -2.71152       -2.47299
H          0.99003       -1.08679       -2.00382
S          0.51653        2.09237       -0.41010
O         -0.43053        3.17665       -0.63541
O          0.88350        1.23002       -1.52693
O         -0.09951        1.21519        0.75614
H          0.16500        0.21018        0.70723
C          1.99918        2.73878        0.32024
H          2.48081        3.36215       -0.43451
H          1.71689        3.33394        1.18893
H          2.62588        1.88020        0.59762
N          3.31475       -0.25589        0.69742
C          4.17054       -0.80563        1.73569
C          3.88663       -0.38565       -0.63302
H          2.40959       -0.72055        0.72630
H          5.10216       -0.23055        1.78966
H          3.66937       -0.72857        2.70409
H          4.43820       -1.86343        1.56774
H          4.81011        0.20204       -0.69492
H          4.13879       -1.42704       -0.90328
H          3.18295        0.00893       -1.37107
N         -3.18524        0.18285        0.38593
C         -3.33741        1.48314       -0.31321
H         -2.43774        2.08137       -0.16562
H         -3.46898        1.29142       -1.37842
H         -4.21319        2.00054        0.08613
C         -4.34438       -0.71191        0.15383
H         -4.46071       -0.86345       -0.91909
H         -4.14478       -1.67309        0.62756
H         -5.24424       -0.25666        0.57391
C         -2.91016        0.35703        1.83307
H         -2.69099       -0.61994        2.26596
H         -2.04366        1.00746        1.94183
H         -3.78816        0.79562        2.31326
