37
2msa1ma1eda_293.log	Energy: -1013357.4673359
S         -1.10522        2.02884       -0.32881
O         -2.15391        1.60547       -1.26087
O          0.27566        1.82930       -0.89330
O         -1.20845        1.40229        1.02094
C         -1.27226        3.78547       -0.07712
H         -2.26351        3.97328        0.33593
H         -0.49661        4.11051        0.61640
H         -1.15875        4.27442       -1.04470
S          2.83277       -0.24132        0.18795
O          2.76018       -0.63924       -1.21164
O          2.19938       -1.14681        1.15723
O          2.31178        1.21795        0.39214
H          1.43765        1.45683       -0.14035
C          4.52780       -0.02978        0.67186
H          5.00087       -1.00991        0.60748
H          4.99387        0.67256       -0.01846
H          4.55131        0.34637        1.69419
N         -3.18821       -1.15996        1.69753
H         -3.69555       -1.73962        2.35710
C         -3.99671       -0.89588        0.50164
H         -4.98486       -0.46851        0.71669
H         -3.46273       -0.19195       -0.14316
H         -4.14078       -1.83190       -0.04632
H         -2.97442       -0.28101        2.16195
H         -1.47794       -1.04280       -1.28989
H          0.28174       -0.90567       -1.30344
H         -0.35406       -3.06110       -2.28605
H          0.51865       -3.31561       -0.77543
H         -2.38938       -3.54436       -1.08885
H         -1.33877       -4.68461       -0.57033
H         -0.71694       -0.23916        0.80393
H         -1.40139       -1.71492        1.01979
C         -0.55542       -1.46675       -0.88480
C         -0.42361       -2.94729       -1.19524
N         -0.58010       -1.25067        0.58414
N         -1.52294       -3.68855       -0.58033
H          0.31366       -1.53511        1.00367
