32
2msa1a1dma_105.log	Energy: -953956.9651712
S          2.20917       -0.91795       -0.26101
O          3.16300       -1.97346       -0.52927
O          1.48228       -0.96098        1.02470
O          1.17183       -0.90266       -1.43960
H          0.29629       -0.42152       -1.22935
C          3.00121        0.66275       -0.35705
H          3.76361        0.68110        0.42325
H          3.46321        0.73528       -1.34213
H          2.25886        1.45864       -0.19496
S         -2.15450       -0.38145       -0.28000
O         -1.04473        0.29549       -1.01735
O         -2.19249       -0.00548        1.15650
O         -2.13869       -1.85561       -0.46946
H         -1.22624       -2.54864        0.97127
C         -3.65090        0.23413       -1.01920
H         -3.67512        1.31502       -0.87949
H         -3.63449       -0.02006       -2.07902
H         -4.49539       -0.23962       -0.51885
N         -0.75057       -2.23829        1.84227
H         -1.29801       -1.40124        2.10960
H          0.20471       -1.89998        1.57995
H         -0.72639       -2.95183        2.56352
N          0.96051        3.10367        0.43337
C          0.30470        2.50245        1.58963
C          0.01098        3.51833       -0.59251
H          1.50521        3.90561        0.73312
H         -0.23966        1.60926        1.27252
H          1.05760        2.20014        2.32357
H         -0.41629        3.17803        2.08060
H         -0.50297        2.63190       -0.97459
H         -0.75046        4.22566       -0.22001
H          0.54569        3.99069       -1.42176
