38
2msa1ma1tma_46.log	Energy: -1003281.3562072
S          0.30325        1.64397       -0.38216
O         -0.60982        2.75153       -0.79726
O          0.59739        0.67423       -1.44701
O         -0.25274        0.98617        0.85606
H         -0.61830       -0.47313        0.94447
C          1.83308        2.39553        0.11315
H          2.23622        2.92091       -0.75351
H          1.62410        3.09267        0.92463
H          2.50447        1.58809        0.42985
S         -1.89735       -1.93604       -0.05718
O         -2.50047       -3.17419        0.38333
O         -0.92304       -1.44382        1.07337
O         -2.79757       -0.82974       -0.43426
H         -2.92499        0.84259       -0.20136
C         -0.82369       -2.23683       -1.43971
H         -0.11594       -3.01255       -1.14631
H         -1.44999       -2.57714       -2.26521
H         -0.31364       -1.30059       -1.68314
N         -3.02420        1.86806       -0.04072
H         -2.13334        2.31040       -0.40774
C         -3.17467        2.14119        1.40813
H         -3.29058        3.21358        1.56361
H         -4.04242        1.60569        1.79276
H         -2.26523        1.79097        1.89505
H         -3.81936        2.20150       -0.58078
N          3.57367       -0.43213        0.37283
C          3.95145       -0.35036       -1.02864
H          3.07267       -0.09261       -1.62680
H          4.70566        0.43194       -1.16309
H          4.37239       -1.30126       -1.40858
C          4.72065       -0.69828        1.22084
H          5.47155        0.08737        1.09108
H          4.41210       -0.70648        2.27061
H          5.19797       -1.67165        0.99516
C          2.52605       -1.42036        0.57313
H          2.18305       -1.40032        1.61128
H          1.67760       -1.17999       -0.07092
H          2.86808       -2.44726        0.33850
