43
2msa1eda1tma_247.log	Energy: -1062667.3024426
S          0.87871        2.16372       -0.37051
O          1.44253        3.38263        0.21129
O         -0.01244        1.42191        0.58376
O          1.92776        1.23871       -0.92402
H          3.02545        0.92785        0.06308
C         -0.13983        2.58212       -1.76584
H         -0.93649        3.23753       -1.41178
H          0.48437        3.09556       -2.49724
H         -0.53996        1.64964       -2.16838
S         -0.54713       -1.74738       -0.88376
O          0.47190       -2.72168       -1.24907
O         -0.89575       -0.69473       -1.83001
O         -0.11209       -1.09453        0.49502
H         -0.12044       -0.07003        0.45921
C         -2.02696       -2.60497       -0.40836
H         -2.42099       -3.08540       -1.30503
H         -1.76062       -3.35063        0.34099
H         -2.72070       -1.85589       -0.00512
H          3.48958       -0.60950        2.58237
H          1.94648       -0.14717        1.81055
H          2.54935       -2.54542        1.30319
H          2.43247       -1.55660       -0.13815
H          4.90278       -2.53986        1.06648
H          4.46807       -2.45678       -0.50655
H          3.89094        1.42780        1.43922
H          4.53087        0.18754        0.49171
C          2.97453       -0.46364        1.62850
C          3.02508       -1.71951        0.76445
N          3.67396        0.61046        0.87308
N          4.41812       -1.97080        0.38092
N         -3.66934        0.01961        0.78643
C         -3.46017        0.99183       -0.27540
H         -2.39129        1.18541       -0.38401
H         -3.83238        0.59057       -1.22285
H         -3.97565        1.95023       -0.07193
C         -5.07695       -0.29400        0.94772
H         -5.48245       -0.68516        0.00906
H         -5.20141       -1.05978        1.72012
H         -5.67657        0.58996        1.23974
C         -3.08328        0.47565        2.03704
H         -3.16448       -0.31210        2.79289
H         -2.02737        0.70993        1.88624
H         -3.58381        1.38262        2.42702
