34
2msa1a1eda_274.log	Energy: -988693.8911715
S         -3.50614       -0.21716       -0.51336
O         -4.90177        0.16699       -0.62733
O         -3.12564       -1.60676       -0.77311
O         -2.97389        0.18849        0.91482
H         -2.34836       -0.58875        1.32160
C         -2.54638        0.83225       -1.58515
H         -2.84527        0.60334       -2.60914
H         -2.78633        1.86900       -1.34581
H         -1.48487        0.62687       -1.42884
S          1.08175        0.91030        0.58534
O          1.14261       -0.27502        1.47768
O          0.64772        0.58135       -0.79168
O          2.39117        1.65100        0.56263
H          3.13349        1.08655       -0.73169
C         -0.10855        2.03719        1.27904
H         -1.09015        1.55856        1.25090
H          0.18945        2.25932        2.30390
H         -0.10620        2.94284        0.67195
N         -1.44109       -1.66166        1.75684
H         -1.57960       -2.36796        1.03798
H         -1.63110       -2.07329        2.66392
H         -0.47224       -1.33021        1.72646
H          5.10214       -0.90890       -1.79883
H          5.44227        0.39524       -0.62817
H          5.00999       -1.87523        0.46788
H          3.91404       -0.59859        1.01110
H          3.18066       -2.95003       -0.41395
H          2.21900       -1.79912        0.29933
H          3.70710        0.95574       -2.34480
H          2.75712       -0.24053       -1.65211
C          4.69201       -0.31764       -0.97612
C          4.18795       -1.22302        0.15530
N          3.52097        0.43751       -1.49024
N          3.01831       -1.95816       -0.30888
