41
2msa1dma1tma_21.log	Energy: -1027947.4428863
S          3.48498       -0.96949        0.09567
O          3.13877       -1.79358       -1.06871
O          2.42345       -0.89473        1.13326
O          3.95427        0.41394       -0.27025
H          2.71267        1.39428       -0.09668
C          4.90256       -1.73501        0.87211
H          4.61895       -2.74617        1.16577
H          5.71333       -1.76224        0.14367
H          5.18532       -1.14463        1.74395
S         -1.30493       -0.02140       -0.72142
O         -0.48789        1.18503       -0.99011
O         -2.36140       -0.26701       -1.72531
O         -1.90879        0.02706        0.66766
H         -3.38098       -0.14019        0.58527
C         -0.20539       -1.41516       -0.71567
H          0.30533       -1.45624       -1.67814
H          0.53217       -1.28892        0.08163
H         -0.80251       -2.31397       -0.55764
N          1.87831        2.03683        0.06337
C          2.10130        3.31632       -0.63212
C          1.65019        2.16019        1.51707
H          1.04203        1.57634       -0.35309
H          2.98652        3.80133       -0.21708
H          2.25873        3.11528       -1.69178
H          1.22738        3.95832       -0.50708
H          2.50150        2.67197        1.96995
H          0.73083        2.72216        1.69223
H          1.57093        1.15100        1.92266
N         -4.46316       -0.28140        0.52948
C         -4.67948       -1.62474       -0.05772
H         -4.17787       -1.64955       -1.02564
H         -4.23497       -2.37022        0.60310
H         -5.75165       -1.80991       -0.16387
C         -4.98843       -0.18248        1.90665
H         -4.50955       -0.94432        2.52285
H         -4.74940        0.80320        2.30715
H         -6.07141       -0.33137        1.90260
C         -4.98909        0.78681       -0.35322
H         -4.76588        1.75412        0.09846
H         -4.47608        0.70891       -1.31242
H         -6.06945        0.66567       -0.46888
