40
2msa1dma1eda_347.log	Energy: -1038015.9277669
S          1.09293       -2.02017       -0.13643
O          2.06627       -1.64539        0.89907
O          1.32282       -1.46702       -1.47688
O         -0.31531       -1.70458        0.36322
C          1.11772       -3.79743       -0.28685
H          2.11336       -4.08350       -0.62730
H          0.90538       -4.22991        0.69071
H          0.36441       -4.09259       -1.01735
S         -2.80816        0.35555       -0.21521
O         -1.87229        1.43064       -0.53081
O         -3.06736        0.13290        1.21047
O         -2.37335       -0.98500       -0.90762
H         -1.49808       -1.33282       -0.48708
C         -4.34701        0.62949       -1.05344
H         -4.76482        1.55222       -0.64990
H         -4.14469        0.72951       -2.11937
H         -5.00453       -0.21525       -0.85094
N          2.09317        1.49408       -1.43272
C          3.49585        1.58790       -1.80691
C          1.21691        2.25622       -2.31194
H          1.81270        0.51427       -1.45286
H          3.85137        2.61524       -1.66169
H          4.08890        0.92863       -1.16752
H          3.68293        1.31244       -2.85831
H          1.41883        3.32813       -2.19575
H          1.34898        2.00230       -3.37699
H          0.17619        2.07409       -2.03312
H          0.43298        1.46361        3.69875
H          1.04498       -0.18722        3.38563
H          2.73609        1.70352        2.87787
H          2.41819        0.58342        1.54505
H          1.74677        3.36989        1.61334
H          1.77831        2.28537        0.32206
H         -1.24582        0.53469        2.33402
H         -0.24669        1.39663        1.30945
C          0.79459        0.77289        2.93264
C          1.97825        1.37604        2.15816
N         -0.29943        0.57945        1.95081
N          1.48976        2.44472        1.29818
H         -0.18064       -0.28942        1.38407
