36
Properties=species:S:1:pos:R:3 2sa1dma1eda_120.log=T Energy:=T -1083081.2238405=T pbc="F F F"
S       -1.33518000      -1.46570000      -0.49957000
O       -0.33030000      -2.51593000      -0.74204000
O       -1.07287000      -0.70305000       0.73657000
O       -1.26128000      -0.41652000      -1.70701000
O       -2.74297000      -1.93980000      -0.58161000
H       -3.57983000      -0.76331000       0.03484000
S        1.13221000       1.99918000      -0.17774000
O        1.88106000       3.20063000      -0.52043000
O        1.60984000       1.27472000       1.01664000
O       -0.37215000       2.55313000       0.22172000
O        0.87745000       1.06929000      -1.30409000
H       -0.29427000       3.51562000       0.23097000
H       -0.45995000       0.16630000      -1.58659000
N       -4.06074000       0.07778000       0.50159000
C       -3.48769000       1.33139000      -0.05928000
C       -3.88390000      -0.04617000       1.96993000
H       -5.04939000       0.01645000       0.26266000
H       -2.43191000       1.38218000       0.21221000
H       -3.57474000       1.29777000      -1.14484000
H       -4.03047000       2.18665000       0.34787000
H       -2.81091000      -0.07946000       2.16115000
H       -4.34691000       0.80822000       2.46675000
H       -4.34520000      -0.97637000       2.30214000
H        3.12044000      -2.27902000      -0.93680000
H        2.57522000      -0.61722000      -1.27763000
H        4.99706000      -0.64485000      -0.60014000
H        3.99331000       0.25473000       0.54601000
H        5.12390000      -2.40775000       0.98160000
H        5.10981000      -1.11245000       1.98129000
H        1.07254000      -1.94227000       0.16228000
H        2.30344000      -1.88757000       1.34175000
C        2.95116000      -1.28898000      -0.50441000
C        4.21043000      -0.74476000       0.15825000
N        1.89440000      -1.41996000       0.52800000
N        4.57276000      -1.61150000       1.28292000
H        1.58011000      -0.46618000       0.81887000
