14
1a1dma_03.log	Energy: -120287.0856970
N          2.30795       -0.00240       -0.11037
H          2.84157        0.81614        0.16020
H          2.84154       -0.82069        0.16105
H          1.42952       -0.00212        0.41233
N         -0.70696        0.00038        0.55503
C         -0.93487       -1.21070       -0.22117
C         -0.92856        1.21273       -0.22104
H         -1.30117        0.00189        1.37640
H         -0.18513       -1.26568       -1.01740
H         -0.81184       -2.08798        0.41971
H         -1.93398       -1.25295       -0.68722
H         -0.17913        1.26342       -1.01783
H         -1.92776        1.26072       -0.68633
H         -0.80000        2.08930        0.41972
