16
1a1eda_03.log	Energy: -155019.1755565
N         -2.67164       -0.49298        0.03256
H         -3.58361       -0.32209       -0.37719
H         -2.80986       -0.70728        1.01442
H         -2.28379       -1.31915       -0.41171
H          0.04295       -1.04600        0.79754
H          1.63420       -0.76766        1.48725
H          0.33939        1.30936        1.49517
H          1.71442        1.47537        0.38981
H         -1.04481        0.90462       -0.44443
H         -0.15423        2.24961       -0.79238
H          1.14044       -0.76070       -1.38616
H          2.58361       -0.85890       -0.63923
C          1.00415       -0.54668        0.61847
C          0.75456        0.96266        0.53282
N          1.61054       -1.14001       -0.56746
N         -0.10046        1.25397       -0.61380
