16
1a1eda_04.log	Energy: -155020.2722115
N         -2.56811       -0.67394        0.05004
H         -3.33408       -0.26047        0.57066
H         -2.96354       -1.11926       -0.77111
H         -1.94692        0.07680       -0.26383
H          1.53790        1.49228        0.66048
H          0.00469        1.18921        1.49436
H          1.38692       -0.81506        1.55954
H         -0.06657       -1.10004        0.58284
H          2.64229       -0.68484       -0.46022
H          1.60760       -1.91536       -0.76238
H         -0.27172        2.27326       -0.71132
H          0.28497        0.88888       -1.40099
C          0.58647        0.93598        0.60088
C          0.88460       -0.55982        0.61426
N         -0.19534        1.26978       -0.58900
N          1.66231       -0.92190       -0.57374
