11
1a1ma_01.log	Energy:  -95626.9145722
N          2.17024       -0.10863        0.02400
H          2.20024       -0.80587       -0.71203
H          2.59502       -0.51085        0.85225
H          2.74141        0.67588       -0.27073
N         -0.89935        0.73130       -0.12241
H          0.09695        0.57451        0.02831
C         -1.63284       -0.51964        0.02120
H         -1.53328       -1.00927        1.00401
H         -2.69843       -0.34891       -0.16204
H         -1.28622       -1.22811       -0.73774
H         -1.21486        1.41181        0.55960
