17
1a1tma_01.log	Energy: -144948.1431450
N         -0.46165        0.00001        0.10335
C         -0.43253       -1.19781       -0.72136
H          0.47567       -1.19773       -1.33104
H         -0.41769       -2.08618       -0.08264
H         -1.30942       -1.26745       -1.39248
C         -1.60419       -0.00019        0.99993
H         -1.57303       -0.88601        1.64128
H         -1.57358        0.88587        1.64098
H         -2.56857       -0.00056        0.45687
C         -0.43275        1.19798       -0.72116
H         -0.41778        2.08624       -0.08228
H          0.47532        1.19802       -1.33102
H         -1.30977        1.26771       -1.39209
N          2.63761        0.00007        0.27270
H          3.07692        0.81827        0.67988
H          3.07670       -0.81869        0.67901
H          1.65027        0.00006        0.53669
