23
1dma1tma_05.log	Energy: -194260.2137656
N          2.07295       -0.00005        0.01781
C          1.65164       -1.19872       -0.68051
H          2.05276       -1.19621       -1.69827
H          2.03681       -2.08393       -0.16611
H          0.54919       -1.29460       -0.74279
C          1.61746       -0.00005        1.39510
H          1.99870       -0.88586        1.91155
H          1.99859        0.88581        1.91151
H          0.51316       -0.00014        1.47969
C          1.65173        1.19867       -0.68056
H          2.03680        2.08387       -0.16607
H          2.05303        1.19620       -1.69826
H          0.54929        1.29453       -0.74303
N         -2.21104        0.00008       -0.59581
C         -2.26596       -1.21087        0.20333
C         -2.26565        1.21095        0.20343
H         -1.37394        0.00001       -1.16828
H         -3.24272       -1.27685        0.69479
H         -2.15869       -2.08588       -0.44361
H         -1.49073       -1.26246        0.98927
H         -3.24245        1.27722        0.69475
H         -1.49052        1.26223        0.98948
H         -2.15798        2.08599       -0.44341
