22
1dma1eda_15.log	Energy: -204335.4998159
N         -1.50769       -0.00790        0.08353
C         -2.25474        0.88908       -0.78280
C         -2.36649       -0.84874        0.89995
H         -0.89895       -0.59279       -0.48799
H         -2.83357        1.59123       -0.17199
H         -1.55756        1.46957       -1.39384
H         -2.95977        0.36813       -1.45401
H         -2.95085       -0.22285        1.58375
H         -3.07615       -1.45730        0.31241
H         -1.75385       -1.52424        1.50420
H          0.83542       -1.19630        0.87249
H          2.44000       -1.71289        0.37359
H          2.41789        0.40344        1.69415
H          3.16501        0.61096        0.09878
H          0.33037        1.25210        0.57207
H          1.55380        2.37298        0.50345
H          1.11292       -0.04729       -1.53174
H          1.86293       -1.48667       -1.78297
C          1.67242       -0.95068        0.20435
C          2.21306        0.42139        0.61123
N          1.20708       -0.99976       -1.18513
N          1.26159        1.45132        0.20321
