22
1dma1eda_10.log	Energy: -204335.2161321
N         -1.78478       -0.34213       -0.38540
C         -2.56864        0.88575       -0.38886
C         -1.67371       -0.93680        0.94066
H         -2.20400       -1.01344       -1.02010
H         -2.04587        1.65208        0.19388
H         -2.67095        1.25834       -1.41119
H         -3.57520        0.76347        0.04499
H         -1.10250       -0.26255        1.58830
H         -2.64862       -1.12139        1.42107
H         -1.12358       -1.87900        0.87507
H          2.66537        0.99342       -0.88934
H          2.87772        1.21261        0.84355
H          2.98604       -1.16796        0.35228
H          1.51086       -0.85510        1.25818
H          0.30523       -0.93854       -0.84298
H          1.69386       -1.33419       -1.63068
H          0.26523        1.23485       -0.49532
H          0.56649        1.59540        1.06483
C          2.18779        0.82359        0.08470
C          2.00180       -0.68733        0.28979
N          0.96613        1.62235        0.13163
N          1.22101       -1.37298       -0.73340
