22
1dma1eda_16.log	Energy: -204333.7703735
N          2.42619       -0.09568       -0.42516
C          2.22879       -1.34242        0.29757
C          2.57713        1.05335        0.45366
H          3.22956       -0.17184       -1.03831
H          1.26783       -1.30309        0.82283
H          2.18574       -2.17460       -0.40973
H          3.01522       -1.55128        1.04303
H          1.64175        1.21161        1.00071
H          3.38638        0.93960        1.19562
H          2.77046        1.95014       -0.14044
H         -0.67222        0.22541        0.99691
H         -0.86570        1.75788        0.13661
H         -2.99335        1.12776        1.08410
H         -3.09081        0.99006       -0.68341
H         -2.79348       -1.26097        1.17015
H         -4.00095       -0.99311        0.10032
H          0.36228        0.09872       -1.18353
H         -1.01436       -0.81393       -1.24674
C         -1.12572        0.69305        0.09943
C         -2.63894        0.55392        0.21310
N         -0.65610        0.13222       -1.15564
N         -3.00950       -0.86222        0.26212
