22
1dma1eda_05.log	Energy: -204335.6231115
N          1.93228       -0.29205       -0.34828
C          2.42612       -0.46529        1.01000
C          1.73567        1.10807       -0.70590
H          2.58192       -0.71884       -1.00000
H          1.67137       -0.10683        1.71810
H          2.59467       -1.52690        1.20932
H          3.36131        0.08376        1.21218
H          0.95120        1.53961       -0.07582
H          2.64487        1.72016       -0.58507
H          1.39797        1.17649       -1.74309
H         -0.55460        0.37389        1.19701
H         -2.20621        0.34598        1.78960
H         -1.55712       -1.84585        0.89428
H         -2.86345       -1.15693       -0.08533
H         -0.01428       -1.04619       -0.82817
H         -1.20175       -1.91595       -1.58430
H         -1.53192        1.31171       -0.87497
H         -2.90789        1.58021       -0.04767
C         -1.60273        0.30706        0.87623
C         -1.80448       -1.04195        0.17949
N         -1.90355        1.47623        0.05799
N         -1.01352       -1.07871       -1.04613
