22
1dma1eda_04.log	Energy: -204335.5005106
N          1.78942        0.08030        0.46515
C          1.51870        1.28183       -0.31495
C          3.01346       -0.59410        0.05977
H          1.83833        0.31653        1.45008
H          1.32416        0.99552       -1.35389
H          0.62070        1.77804        0.06229
H          2.35279        2.00313       -0.30797
H          2.89171       -0.97753       -0.95923
H          3.90149        0.06069        0.06861
H          3.20250       -1.44625        0.71812
H         -0.97806        0.53143        1.26354
H         -2.72235        0.43503        1.44975
H         -1.76911       -1.79362        1.09689
H         -2.80075       -1.36782       -0.28039
H          0.12833       -1.08136       -0.27869
H         -0.74600       -2.19220       -1.14120
H         -1.47941        1.06282       -1.10847
H         -3.02360        1.32879       -0.66707
C         -1.91080        0.32334        0.72276
C         -1.85706       -1.12362        0.22436
N         -2.06857        1.32918       -0.32267
N         -0.76749       -1.26347       -0.73733
