22
1dma1eda_09.log	Energy: -204334.6261069
N         -2.35100       -0.06252        0.42310
C         -2.16660       -1.37533       -0.17965
C         -2.61203        0.98002       -0.55849
H         -3.10675       -0.09709        1.09800
H         -1.25581       -1.36655       -0.78812
H         -2.02912       -2.12435        0.60378
H         -3.00540       -1.68390       -0.82610
H         -1.73150        1.09891       -1.19876
H         -3.47618        0.76480       -1.20963
H         -2.78460        1.93222       -0.05036
H          3.20236        0.95433        0.53991
H          3.03844        0.92439       -1.20906
H          0.99843        1.84420       -0.24020
H          0.63228        0.27038       -0.95929
H          0.98799        0.74665        1.90736
H         -0.35659        0.19483        1.12718
H          2.54144       -1.39399        0.49468
H          2.68006       -1.39251       -1.12956
C          2.66527        0.46769       -0.28547
C          1.16883        0.75845       -0.13445
N          3.01979       -0.94596       -0.28303
N          0.66436        0.20031        1.11543
