23
1dma1tma_03.log	Energy: -194262.2683678
N         -1.31628       -0.00002       -0.12392
C         -1.21817        1.19425        0.69601
H         -0.27079        1.17683        1.24205
H         -1.23670        2.08533        0.06001
H         -2.04790        1.27495        1.42588
C         -2.52875        0.00024       -0.91977
H         -2.55210        0.88630       -1.56178
H         -2.55228       -0.88561       -1.56208
H         -3.44698        0.00023       -0.29910
C         -1.21863       -1.19440        0.69589
H         -1.23744       -2.08543        0.05983
H         -0.27130       -1.17740        1.24203
H         -2.04843       -1.27486        1.42571
N          2.11126       -0.00007        0.43489
C          2.06266        1.20663       -0.37599
C          2.06265       -1.20666       -0.37618
H          2.95267       -0.00008        1.00085
H          1.10281        1.23335       -0.90192
H          2.12317        2.08974        0.26690
H          2.86794        1.26603       -1.12965
H          1.10268       -1.23339       -0.90189
H          2.86781       -1.26587       -1.12997
H          2.12340       -2.08985        0.26658
