22
1dma1eda_18.log	Energy: -204334.4332098
N         -1.85991       -0.62997       -0.03083
C         -2.56847        0.17970        0.94096
C         -1.73081        0.01976       -1.31969
H         -0.93870       -0.89029        0.31679
H         -3.61083        0.30892        0.62765
H         -2.57183       -0.32465        1.91088
H         -2.13930        1.19129        1.07854
H         -2.72011        0.14564       -1.77449
H         -1.25687        1.01896       -1.26911
H         -1.13438       -0.60536       -1.99108
H          1.24288        0.61343       -1.39255
H          2.65078        1.45034       -0.72133
H          3.09239       -0.89739       -0.57394
H          2.77796       -0.30654        1.06742
H          0.98693       -1.92816       -0.57000
H          1.45233       -2.16128        0.97442
H          0.60070        2.36314        0.18387
H          0.23786        0.91443        0.85332
C          1.79532        0.81837       -0.45788
C          2.31454       -0.50260        0.09584
N          1.00343        1.50884        0.55170
N          1.20887       -1.44799        0.29687
