22
1dma1eda_06.log	Energy: -204336.0061031
N         -1.67757        0.00739       -0.26275
C         -2.98338       -0.59595       -0.44313
C         -1.71147        1.19020        0.57685
H         -1.01942       -0.65911        0.14196
H         -3.62925        0.07678       -1.02006
H         -2.88503       -1.52730       -1.00820
H         -3.50244       -0.82127        0.50733
H         -2.24842        1.99921        0.06648
H         -2.20571        1.02625        1.55271
H         -0.68829        1.52785        0.77009
H          2.88226       -1.26484        0.01214
H          1.53552       -1.83995       -0.98260
H          2.27774        0.34204       -1.77323
H          0.62647        0.44546       -1.12760
H          3.04509        1.38428        0.24154
H          1.70568        2.23429       -0.15191
H          1.10376       -2.07789        1.42362
H          1.12254       -0.43939        1.55311
C          1.82066       -1.09080       -0.23604
C          1.67559        0.29630       -0.85296
N          0.93532       -1.21386        0.92088
N          2.03812        1.32005        0.13134
