23
1dma1tma_01.log	Energy: -194263.6773386
N         -1.34501       -0.01943        0.08853
C         -1.47973       -1.13196       -0.83851
H         -0.68756       -1.07592       -1.59072
H         -1.37311       -2.07769       -0.29880
H         -2.45870       -1.13500       -1.35359
C         -2.32000       -0.09829        1.16208
H         -2.20757       -1.04715        1.69443
H         -2.15466        0.71492        1.87495
H         -3.36099       -0.02904        0.79289
C         -1.42376        1.25334       -0.61068
H         -1.27132        2.07319        0.09780
H         -0.63641        1.30098       -1.36890
H         -2.40078        1.40108       -1.10811
N          1.71875       -0.03385       -0.22743
C          2.35740        1.21269        0.14856
C          2.46059       -1.20070        0.21030
H          0.77147       -0.06385        0.15037
H          3.31891        1.31018       -0.36919
H          1.72895        2.05485       -0.15700
H          2.55286        1.30489        1.23326
H          3.42560       -1.24530       -0.30812
H          2.66559       -1.21578        1.29710
H          1.90451       -2.10787       -0.04455
