22
1dma1eda_02.log	Energy: -204336.9958456
N          1.51609       -0.04572       -0.00623
C          2.23189       -0.83036       -0.99556
C          2.38913        0.80849        0.77907
H          0.79476        0.52294       -0.45156
H          2.89482       -1.54405       -0.49315
H          1.52081       -1.40307       -1.59808
H          2.85159       -0.22023       -1.67670
H          3.05197        0.19373        1.39881
H          3.02316        1.47313        0.16553
H          1.78727        1.43024        1.44834
H         -3.14730        0.68585        0.13809
H         -2.56808        0.54405       -1.53510
H         -2.61371       -1.61650       -0.26749
H         -1.03505       -1.21836       -0.95720
H         -1.35822       -1.91273        1.57695
H         -0.18815       -0.85883        1.10501
H         -1.47903        2.38327       -0.54824
H         -1.00875        1.49967        0.74223
C         -2.26223        0.48376       -0.48451
C         -1.76505       -0.92859       -0.18544
N         -1.18821        1.45586       -0.25834
N         -1.19766       -1.00427        1.16045
