25
1eda1tma_06.log	Energy: -228996.9926557
N         -1.57677       -0.00934       -0.02574
C         -1.86142        1.24781       -0.69694
H         -1.02384        1.93513       -0.55145
H         -1.99394        1.07616       -1.76956
H         -2.77739        1.73153       -0.30716
C         -2.66059       -0.95952       -0.20381
H         -2.82776       -1.13679       -1.27052
H         -2.39825       -1.91281        0.26516
H         -3.60986       -0.60533        0.24144
C         -1.28308        0.21012        1.38306
H         -1.04348       -0.74540        1.86052
H         -0.41290        0.86732        1.46726
H         -2.13791        0.66111        1.92200
H          3.40924        0.25923       -0.73970
H          3.28769        0.62474        0.99531
H          2.81034       -1.75241        0.42104
H          1.49193       -0.95394        1.29153
H          1.04709       -2.32464       -0.88404
H          0.22949       -0.91738       -0.65927
H          2.14379        2.30481       -0.22659
H          1.22319        1.19859       -0.99381
C          2.70786        0.35956        0.10363
C          2.03053       -0.98794        0.33148
N          1.70053        1.39878       -0.11840
N          1.15947       -1.32231       -0.79397
