25
1eda1tma_09.log	Energy: -228995.4917133
N         -1.66631        0.00640        0.06629
C         -2.84501        0.85266       -0.00122
H         -3.01345        1.33005        0.96853
H         -2.69197        1.63966       -0.74525
H         -3.75771        0.28862       -0.27360
C         -1.36381       -0.59913       -1.22107
H         -1.27880        0.18181       -1.98262
H         -0.40090       -1.11741       -1.16891
H         -2.14400       -1.31354       -1.54501
C         -1.79973       -1.00268        1.10075
H         -0.88614       -1.60296        1.15270
H         -1.95107       -0.52381        2.07272
H         -2.64803       -1.68944        0.91533
H          3.10913        1.39878        0.11608
H          2.03192        1.48510        1.49930
H          2.97234       -0.74702        1.37341
H          1.23241       -0.82197        1.05443
H          3.28175       -0.89572       -1.04496
H          2.31272       -2.12644       -0.58800
H          1.18768        1.15663       -1.27939
H          0.18069        1.25127       -0.00919
C          2.14184        1.04632        0.50078
C          2.18949       -0.47910        0.64401
N          1.08824        1.56718       -0.35559
N          2.36761       -1.11674       -0.66142
