25
1eda1tma_07.log	Energy: -228996.7434127
N         -1.53277        0.03316       -0.05255
C         -2.06853        1.35815       -0.32011
H         -1.38621        2.12084        0.06783
H         -2.16876        1.50822       -1.39886
H         -3.06000        1.51376        0.14489
C         -2.37930       -1.00588       -0.62022
H         -2.48559       -0.84920       -1.69751
H         -1.91607       -1.98355       -0.45832
H         -3.38920       -1.01727       -0.16986
C         -1.34135       -0.17731        1.37458
H         -0.88588       -1.15752        1.54281
H         -0.66510        0.58591        1.77199
H         -2.29181       -0.12603        1.93706
H          1.75534       -0.67421        1.39508
H          3.04051       -1.48520        0.50724
H          3.45319        0.91849        0.47657
H          3.07039        0.38791       -1.15665
H          0.81553        1.22396       -0.77534
H          1.27475        1.80866        0.67329
H          0.34867       -0.92593       -0.54600
H          1.54194       -1.75690       -1.32333
C          2.17347       -0.82325        0.39013
C          2.64375        0.53358       -0.15557
N          1.17044       -1.51520       -0.41020
N          1.61662        1.56722       -0.25207
