19
1ma1eda_01.log	Energy: -179677.5371982
N         -1.85161        0.37449       -0.53426
H         -1.09316        0.97496       -0.20674
C         -2.68163       -0.08538        0.57430
H         -3.16042        0.71752        1.15471
H         -3.46691       -0.74708        0.19690
H         -2.06685       -0.67482        1.26158
H         -2.40154        0.90794       -1.19832
H          2.86613        0.27278       -0.03285
H          2.08830        0.79608        1.47615
H          1.83382       -1.63952        0.97105
H          0.30358       -0.79045        1.22336
H          0.70545       -2.35043       -0.85155
H         -0.18366       -0.97941       -1.01111
H          1.51426        2.34751       -0.18843
H          1.03180        1.17843       -1.22040
C          1.89525        0.43553        0.45952
C          1.15603       -0.89795        0.53399
N          1.07714        1.43350       -0.23661
N          0.74751       -1.34038       -0.79787
