19
1ma1eda_04.log	Energy: -179675.2955160
N          2.74289       -0.38255        0.02276
H          3.18997       -0.49775        0.92608
C          2.31536        1.00442       -0.16640
H          3.11549        1.74988       -0.05639
H          1.88520        1.11274       -1.16592
H          1.52400        1.23016        0.55378
H          3.42038       -0.65470       -0.68090
H         -2.90503       -0.72725        0.31083
H         -2.82091        0.10976       -1.23278
H         -1.14870       -1.67172       -1.19752
H         -0.32875       -0.10738       -1.21161
H         -0.58544       -1.86316        1.10475
H          0.77047       -1.17582        0.45401
H         -1.52410        1.06267        1.20250
H         -1.71062        1.89816       -0.18587
C         -2.27747       -0.06182       -0.29659
C         -0.95125       -0.76869       -0.59568
N         -2.14938        1.20499        0.41302
N         -0.22234       -1.03801        0.64009
