19
1ma1eda_11.log	Energy: -179676.3868277
N         -2.02029       -0.44803       -0.76100
H         -1.30352        0.26154       -0.92375
C         -2.65610       -0.23045        0.53257
H         -3.12148        0.75963        0.66332
H         -3.42607       -0.98993        0.70111
H         -1.90888       -0.35087        1.32462
H         -2.70136       -0.38578       -1.50938
H          1.89092        1.27987        1.08478
H          0.18671        0.99604        1.46888
H          1.38871       -1.12177        1.51912
H          0.24164       -1.11765        0.16375
H          3.14280       -0.81548       -0.05508
H          2.14925       -1.84563       -0.85067
H          0.50615        2.41468       -0.52446
H          1.16565        1.11438       -1.28375
C          0.95765        0.82661        0.70834
C          1.17033       -0.67449        0.53758
N          0.51128        1.40155       -0.55947
N          2.21733       -0.91482       -0.45802
