17
1ma1dma_01.log	Energy: -144942.7744903
N         -1.92984       -0.05924       -0.70997
H         -2.39788        0.71628       -1.16549
C         -2.02505        0.04840        0.74520
H         -3.05045        0.05805        1.14092
H         -1.48967       -0.78927        1.20085
H         -1.52395        0.96476        1.06897
H         -2.36805       -0.91063       -1.04340
N          1.20921       -0.01627       -0.57632
C          1.49725        1.21558        0.12973
C          1.52910       -1.19418        0.20423
H          0.22483       -0.03786       -0.84080
H          2.57823        1.31696        0.28332
H          1.16581        2.06998       -0.46764
H          1.01593        1.28217        1.12543
H          2.61200       -1.25565        0.36525
H          1.04651       -1.21242        1.20136
H          1.22330       -2.09261       -0.33968
