19
1ma1eda_05.log	Energy: -179675.6805137
N         -2.20154       -0.06739       -0.79102
H         -2.97979        0.36276       -1.27865
C         -2.58715       -0.45940        0.56419
H         -3.42772       -1.16559        0.61572
H         -1.72795       -0.91762        1.06198
H         -2.85412        0.43520        1.13348
H         -1.92066       -0.87569       -1.33614
H          0.41314       -1.23296        0.00125
H          1.61935       -1.33225        1.27713
H          0.23617        0.65100        1.61717
H          1.88365        1.15471        1.20909
H         -0.39364        1.13086       -0.64128
H          0.51093        2.42879       -0.17396
H          2.15883       -0.21426       -1.36337
H          3.26122       -0.61272       -0.23242
C          1.32234       -0.75725        0.39255
C          0.98167        0.67939        0.80289
N          2.36189       -0.87989       -0.62134
N          0.54243        1.43461       -0.36589
