19
1ma1eda_16.log	Energy: -179674.7107217
N          1.93498       -0.69209       -0.45147
H          1.31831       -0.09404       -0.99457
C          2.77304        0.11472        0.42454
H          2.22417        0.77692        1.11818
H          3.41039       -0.53762        1.02889
H          3.43519        0.74328       -0.17925
H          1.31560       -1.29241        0.08537
H         -2.85786       -0.04226       -0.16005
H         -2.30189       -0.65792        1.40048
H         -1.59362        1.63745        1.16024
H         -0.17058        0.57690        1.13960
H         -1.38439        1.77246       -1.24943
H          0.09238        2.08420       -0.62941
H         -1.81812       -2.25769       -0.32375
H         -0.88795       -1.16485       -1.11797
C         -1.95927       -0.34250        0.40916
C         -1.05866        0.87510        0.57301
N         -1.22555       -1.44457       -0.20188
N         -0.61119        1.36119       -0.73503
