20
1ma1tma_01.log	Energy: -169604.1685576
N         -0.97869        0.01818        0.09893
C         -1.96037        0.64830        0.96371
H         -2.13324        0.02437        1.84549
H         -1.58716        1.61958        1.30171
H         -2.93150        0.80723        0.45714
C         -0.67145        0.84998       -1.05382
H         -0.30913        1.82639       -0.71787
H          0.11764        0.37466       -1.64401
H         -1.55177        1.01092       -1.70431
C         -1.40602       -1.30828       -0.31651
H         -0.61294       -1.77803       -0.90546
H         -1.59322       -1.92884        0.56495
H         -2.33034       -1.28238       -0.92431
N          2.02805       -0.73911        0.15622
H          1.08277       -0.52005        0.47238
C          2.84866        0.46617        0.13518
H          2.96367        0.96831        1.10887
H          3.84842        0.22779       -0.24096
H          2.40789        1.18769       -0.56012
H          2.41850       -1.42814        0.78910
