29
1sa1dma1eda_21.log	Energy: -643709.1752201
S          0.21637       -0.35911        0.40922
O          0.66074       -0.69946       -0.94636
O         -0.17819        1.10061        0.50416
O         -0.86104       -1.19957        0.95841
O          1.44682       -0.53770        1.38760
H          2.30526       -0.20496        0.92387
H         -4.40407        1.33137       -0.42096
H         -2.88893        2.03031       -1.06426
H         -3.60808       -0.14480       -2.18906
H         -1.98344       -0.20358       -1.50551
H         -4.07463       -1.89872       -0.84071
H         -2.63075       -1.74656       -0.03862
H         -3.06506        1.83618        1.44339
H         -2.94461        0.18667        1.20755
C         -3.32728        1.18145       -0.53500
C         -3.04722       -0.14505       -1.24966
N         -2.71990        1.11266        0.81870
N         -3.44908       -1.24994       -0.38410
H         -1.61977        1.16399        0.74617
N          3.60009        0.28885        0.10798
C          3.22591        1.50406       -0.62143
C          3.98115       -0.80914       -0.78446
H          4.36624        0.49667        0.74144
H          2.35217        1.27987       -1.23797
H          2.94616        2.28306        0.09098
H          4.03761        1.87106       -1.26611
H          3.10108       -1.09659       -1.36536
H          4.79451       -0.52883       -1.46928
H          4.29457       -1.66937       -0.18821
