18
1sa1a1ma_15.log	Energy: -534992.7071378
S         -1.19664       -0.16736       -0.00801
O         -1.30139       -1.61977        0.03781
O         -0.59515        0.40760       -1.23151
O         -2.72785        0.39933       -0.06602
O         -0.59562        0.43229        1.21738
H         -3.27280       -0.19657        0.46435
H          0.66353        1.55314        0.78004
N          3.22188       -0.17243        0.03080
H          3.87299       -0.20558       -0.74830
C          2.28658       -1.31461       -0.03928
H          2.79278       -2.28557       -0.02995
H          1.59477       -1.26821        0.80413
H          1.68900       -1.23563       -0.94962
H          3.78469       -0.23466        0.87430
N          1.30080        1.85873        0.00699
H          1.53191        2.84559        0.04381
H          0.71727        1.60887       -0.81563
H          2.15384        1.22427        0.01479
