29
1sa1dma1eda_64.log	Energy: -643707.3050160
S          0.59730        1.80537       -0.12249
O          0.93593        0.95997        1.04430
O          1.19526        3.12817       -0.14075
O          0.65443        1.02974       -1.38321
O         -1.04018        2.06069        0.01956
H         -1.16082        2.87014        0.53231
H          0.73961       -3.38032        0.15282
H          0.85342       -2.92991       -1.57094
H          3.10222       -3.12681       -0.44123
H          2.81440       -1.51940       -1.11694
H          3.58727       -1.89010        1.39457
H          2.53614       -0.67524        1.05452
H         -0.84369       -1.49563       -0.30195
H          0.43910       -1.00532        0.63556
C          1.03664       -2.59606       -0.54683
C          2.50236       -2.21956       -0.32823
N          0.20512       -1.40541       -0.28399
N          2.67203       -1.68380        1.01730
H          0.42437       -0.61019       -0.93064
N         -2.48487       -0.72335       -0.04759
C         -2.62224       -0.58977        1.40253
C         -3.67650       -1.27556       -0.68333
H         -2.28993        0.20385       -0.42417
H         -2.70811       -1.58293        1.85637
H         -1.73565       -0.09257        1.80476
H         -3.50811       -0.00513        1.69232
H         -3.83297       -2.30180       -0.33546
H         -4.58721       -0.69953       -0.45922
H         -3.53778       -1.29998       -1.76702
