29
1sa1dma1eda_04.log	Energy: -643710.8522454
S         -1.56702       -1.04587       -0.04834
O         -1.03362       -0.85077        1.30073
O         -2.33948        0.08491       -0.59006
O         -0.53970       -1.53720       -1.00961
O         -2.62452       -2.27179        0.12237
H         -3.14115       -2.32648       -0.69239
H          2.55717        0.68731        1.16521
H          1.22030       -0.47742        1.37316
H          3.43612       -1.65305        1.39903
H          2.43970       -2.15154        0.02935
H          4.76319       -0.37762       -0.09866
H          4.40545       -1.67240       -1.02876
H          0.83103        1.15441       -0.43929
H          2.19476        0.40146       -1.24259
C          2.03959       -0.16852        0.72032
C          3.00555       -1.31360        0.44821
N          1.44276        0.27243       -0.56204
N          4.00158       -0.88452       -0.53701
H          0.78265       -0.46989       -0.90268
N         -0.37404        2.29544       -0.11965
C         -0.30823        3.53921       -0.87956
C         -0.43934        2.50897        1.32694
H         -1.20194        1.76023       -0.39686
H          0.63349        4.05565       -0.66324
H         -0.34209        3.31954       -1.94983
H         -1.13389        4.22488       -0.63914
H          0.50264        2.94573        1.67862
H         -1.25654        3.18683        1.61224
H         -0.59741        1.54529        1.81722
