21
1sa1a1dma_07.log	Energy: -559656.2665659
S         -0.68212       -0.55254       -0.17465
O          0.27934       -1.03731       -1.14940
O         -1.82188       -1.37436        0.19471
O          0.06847       -0.15048        1.13104
O         -1.22325        0.83104       -0.73727
H          1.09638        0.16571        0.91583
H         -2.13718        1.02069       -0.33087
N          2.44377        0.54327        0.60289
C          2.40837        1.47736       -0.53218
C          3.20165       -0.68130        0.30803
H          2.85222        1.00829        1.40948
H          1.90604        0.98423       -1.36712
H          1.82984        2.36093       -0.25519
H          3.41610        1.78074       -0.84164
H          2.69462       -1.20728       -0.50350
H          4.23588       -0.46127        0.01585
H          3.20304       -1.32476        1.19029
N         -3.64504        1.00415        0.37001
H         -3.74818        1.50505        1.24598
H         -3.68046        0.00533        0.56700
H         -4.42711        1.24356       -0.22973
