26
1sa1ma1eda_87.log	Energy: -619048.2875636
S         -1.38227       -0.64450        0.01653
O         -1.14754       -2.08858        0.14142
O         -1.15448        0.09600        1.27578
O         -0.73650       -0.00526       -1.14540
O         -2.96921       -0.47433       -0.33225
H         -3.45965       -1.05161        0.26755
H          3.72987       -0.25177       -0.50005
H          3.19879        0.75099        0.87105
H          2.89838       -1.63769        1.41814
H          1.31443       -0.88019        1.27026
H          2.42997       -2.86716       -0.48589
H          0.84634       -2.42013       -0.25755
H          2.34279        1.20356       -1.57180
H          1.17640        0.09755       -1.13913
C          2.86765        0.04888        0.09999
C          2.19896       -1.18880        0.70115
N          1.89582        0.75365       -0.77754
N          1.80048       -2.08436       -0.37162
H          1.33869        1.50334       -0.20719
N          0.36208        2.47350        0.65577
H         -0.21383        1.74837        1.10112
C         -0.47992        3.23355       -0.28046
H         -1.31443        3.74372        0.21303
H          0.12480        3.97938       -0.80506
H         -0.88988        2.53198       -1.01099
H          0.72664        3.07780        1.38535
