24
1sa1ma1dma_35.log	Energy: -584301.0933284
S         -0.36600       -0.70849       -0.06513
O          0.46972       -1.04147       -1.20846
O         -1.65031       -1.43624        0.05414
O          0.43972       -1.20361        1.25944
O         -0.57289        0.75912        0.12096
H          1.38546       -1.06541        1.10118
H         -2.17414        1.05418        0.52119
N          2.98003        0.82164       -0.60773
C          2.71969        1.77851        0.44882
C          3.75822       -0.31575       -0.17255
H          2.11448        0.50961       -1.03563
H          3.66095        2.24137        0.76821
H          2.05845        2.56482        0.07864
H          2.24397        1.33478        1.34442
H          4.78168       -0.00414        0.06682
H          3.36524       -0.81383        0.74172
H          3.80287       -1.06345       -0.96717
N         -3.16033        0.67492        0.55293
H         -2.91839       -0.34488        0.50675
C         -3.93432        1.09463       -0.63590
H         -4.90073        0.59139       -0.64303
H         -4.07199        2.17541       -0.62046
H         -3.36448        0.80932       -1.51978
H         -3.61677        0.90400        1.43204
