32
1sa1eda1tma_01.log	Energy: -668371.4385091
S         -0.03604       -0.40582       -0.14500
O         -0.73972       -1.16579        0.89767
O          1.02109       -1.10777       -0.87478
O         -1.03907        0.22138       -1.08769
O          0.64259        0.81788        0.61839
H         -2.35223        0.18200       -0.47261
H          1.50565        1.10276        0.13636
H          5.01568        1.31492       -0.20640
H          4.00562        1.81461        1.17290
H          4.88901       -0.50408        1.37769
H          3.12109       -0.44279        1.41811
H          4.45169       -2.07885       -0.17467
H          3.02508       -1.42401       -0.64121
H          2.97531        2.38225       -0.93999
H          2.95311        0.80312       -1.37142
C          4.06005        1.14528        0.30738
C          3.99912       -0.30822        0.77025
N          2.91795        1.43734       -0.57359
N          3.98611       -1.20499       -0.38389
N         -3.34640        0.18825        0.00754
C         -3.15664        0.80932        1.33942
H         -2.44865        0.19724        1.89859
H         -2.73254        1.80484        1.20149
H         -4.11926        0.87508        1.85428
C         -4.23415        0.99104       -0.85628
H         -3.80633        1.98801       -0.96939
H         -4.29909        0.51717       -1.83638
H         -5.22922        1.05993       -0.40810
C         -3.78715       -1.22037        0.11962
H         -3.87006       -1.64284       -0.88265
H         -3.02290       -1.76427        0.67563
H         -4.75545       -1.26413        0.62633
