32
1sa1eda1tma_20.log	Energy: -668371.0260597
S         -0.28546       -1.65850       -0.24068
O         -1.63492       -2.06381        0.15719
O          0.59508       -2.64784       -0.84333
O         -0.34249       -0.38300       -1.06732
O          0.38823       -1.16969        1.14266
H         -1.36827        0.49184       -0.39434
H          1.33390       -0.88275        0.94053
H          3.37630        1.23000       -1.47771
H          3.44483        2.67988       -0.47381
H          4.52098        0.91171        0.68284
H          3.02440        1.31063        1.55054
H          3.10324       -0.91679       -0.37198
H          3.44022       -1.11298        1.20893
H          1.29566        2.47826       -1.39154
H          1.05035        0.99165       -0.78516
C          2.97265        1.69534       -0.56088
C          3.42393        0.86604        0.63321
N          1.52398        1.87924       -0.60364
N          2.94114       -0.52069        0.55173
N         -2.11454        1.10950        0.10076
C         -1.93912        0.91774        1.56168
H         -2.09667       -0.13634        1.78928
H         -0.91536        1.18428        1.82359
H         -2.65525        1.54914        2.09485
C         -1.84839        2.50708       -0.30049
H         -0.82598        2.75838       -0.00809
H         -1.94823        2.58825       -1.38407
H         -2.56403        3.17403        0.18763
C         -3.43149        0.61440       -0.36093
H         -3.50125        0.75535       -1.44017
H         -3.48521       -0.45125       -0.13384
H         -4.22912        1.16754        0.14245
