29
1sa1dma1eda_08.log	Energy: -643710.3022083
S          2.05040       -0.39108       -0.02135
O          2.26414        1.00662       -0.43334
O          1.32169       -0.56395        1.23725
O          1.50422       -1.22861       -1.12513
O          3.52677       -0.99886        0.29724
H          4.10214       -0.77311       -0.44555
H         -1.50657       -2.51756        0.22649
H         -0.93664       -1.17889        1.22936
H         -3.38793       -1.59419        1.60226
H         -3.12430       -0.00084        0.88831
H         -4.07186       -2.36354       -0.56056
H         -4.75719       -0.88351       -0.47042
H         -0.19368       -1.04890       -1.08492
H         -1.83686       -0.84014       -1.53641
C         -1.60932       -1.44431        0.41201
C         -3.05898       -1.07648        0.69150
N         -1.14593       -0.72028       -0.79339
N         -3.86967       -1.37131       -0.49168
H         -1.02044        0.33175       -0.56843
N         -0.57882        1.89266       -0.10415
C         -0.74082        2.05992        1.34014
C         -1.21421        2.95458       -0.87696
H          0.42430        1.86226       -0.30904
H         -1.79940        1.95354        1.60657
H         -0.15871        1.28802        1.84888
H         -0.40157        3.04618        1.68813
H         -2.29891        2.92259       -0.72418
H         -0.86007        3.95585       -0.59150
H         -1.01245        2.80635       -1.94099
