27
1sa1ma1tma_10.log	Energy: -608974.0526901
S          1.63835       -0.19299        0.04624
O          1.93286        1.01129        0.82902
O          1.34787       -1.41721        0.79249
O          0.60388        0.06304       -1.00588
O          3.00347       -0.53751       -0.77168
H          3.43657        0.30183       -0.97502
N         -0.96644        2.29382        0.69268
H         -1.20491        2.97061        1.41097
C         -1.00456        2.92908       -0.62669
H         -0.38788        3.83485       -0.70868
H         -0.64111        2.21009       -1.36527
H         -2.03622        3.19854       -0.88030
H         -0.01059        1.99201        0.88554
N         -1.66862       -0.92973       -0.06063
C         -2.80334       -0.21448       -0.68566
H         -2.80517        0.80353       -0.29394
H         -2.65637       -0.19780       -1.76645
H         -3.73637       -0.72839       -0.44157
C         -1.52157       -2.31969       -0.55427
H         -1.42443       -2.29655       -1.64013
H         -0.61152       -2.73449       -0.11927
H         -2.39869       -2.90277       -0.26314
C         -1.73460       -0.87403        1.42230
H         -0.83274       -1.34109        1.81852
H         -1.76441        0.17888        1.70551
H         -2.63230       -1.40095        1.75612
H         -0.78241       -0.43134       -0.37269
