23
1sa1a1eda_36.log	Energy: -594385.6795535
S         -1.11724       -0.36973        0.38586
O         -1.78044        0.57463        1.26706
O         -0.48047       -1.55672        0.92573
O         -2.15751       -0.85772       -0.69860
O         -0.05593        0.42106       -0.46012
H         -2.88949       -0.15250       -0.81020
H          0.80343       -0.19999       -0.63628
H          3.51287        0.96934       -1.37716
H          4.56045        0.96520        0.04338
H          4.03122       -1.29974       -0.25775
H          2.95144       -0.77204        1.04968
H          2.21329       -1.22175       -1.75443
H          1.61483       -1.95475       -0.41133
H          2.94619        2.66914        0.33982
H          1.69251        1.61870        0.21630
C          3.52837        0.80221       -0.28418
C          3.17698       -0.65688       -0.01339
N          2.67177        1.70327        0.47311
N          1.98150       -1.07712       -0.77524
N         -3.99514        1.05621       -0.72080
H         -4.96414        0.76359       -0.65482
H         -3.92796        1.78454       -1.42362
H         -3.71294        1.44745        0.17607
