18
1sa1a1ma_13.log	Energy: -534995.4896798
S         -0.37775       -0.15283        0.20245
O          0.60101       -0.10622        1.31987
O          0.31353        0.17312       -1.09112
O         -1.18948       -1.36491        0.12615
O         -1.36161        1.06949        0.49574
H         -2.26887        0.85545        0.10945
N          2.66047        0.66285       -0.12600
H          2.12540        0.49797        0.76121
H          1.81835        0.60501       -0.78612
C          3.62688       -0.42349       -0.38270
H          4.07733       -0.29013       -1.36618
H          4.39927       -0.42621        0.38638
H          3.08009       -1.36583       -0.35623
H          3.08066        1.58805       -0.13483
N         -3.68422        0.13997       -0.51253
H         -3.92777        0.34845       -1.47438
H         -4.52466        0.19221        0.05201
H         -3.31852       -0.81029       -0.46967
