26
1sa1ma1eda_70.log	Energy: -619047.8311998
S         -1.75935       -0.30144        0.00834
O         -0.59437       -0.84418        0.75062
O         -2.16913        1.04683        0.42278
O         -1.59054       -0.44936       -1.44716
O         -2.96009       -1.29998        0.46747
H         -3.79584       -0.87139        0.23973
H          2.84356       -1.64557       -1.41134
H          3.24722        0.07333       -1.67388
H          4.14009       -0.68216        0.46808
H          2.87091        0.50996        0.75453
H          2.85959       -1.70853        2.07005
H          1.41816       -1.31822        1.39193
H          0.86015       -0.53506       -2.15280
H          0.63123       -0.81719       -0.55094
C          2.67046       -0.62564       -1.06205
C          3.05994       -0.51893        0.40847
N          1.23340       -0.30878       -1.23219
N          2.38905       -1.54601        1.18895
H          1.01343        0.72564       -1.03662
N          0.44914        2.25934       -0.48665
H          0.67125        3.08455       -1.03481
C          0.81024        2.46395        0.92387
H          0.28687        3.30925        1.38357
H          0.54717        1.56092        1.48052
H          1.88783        2.63324        1.00956
H         -0.56404        2.12961       -0.53327
