26
1sa1ma1eda_84.log	Energy: -619048.4934137
S         -1.93291       -0.39751        0.10397
O         -2.95520       -1.36920        0.45558
O         -1.13919       -0.63357       -1.10437
O         -2.75072        0.99299       -0.27000
O         -1.06909        0.00950        1.25655
H         -3.60456        0.94167        0.17825
H          0.01202        1.08882        0.87823
H          4.10676       -1.33231        0.28599
H          3.25215       -0.87670        1.76899
H          1.98077       -2.52939        0.37760
H          1.08172       -1.05044        0.67501
H          2.23700       -1.86700       -1.85466
H          0.78892       -1.16543       -1.50544
H          4.11552        1.05628        0.56641
H          3.19260        0.63645       -0.73048
C          3.22577       -0.80246        0.67727
C          1.94965       -1.45564        0.14617
N          3.24318        0.61812        0.28850
N          1.78160       -1.16844       -1.27789
N          0.71111        1.83095        0.55470
H          0.62472        2.63134        1.17661
C          0.41962        2.19626       -0.85411
H          1.06631        3.01936       -1.16175
H          0.60628        1.31431       -1.46659
H         -0.63078        2.47199       -0.94583
H          1.68932        1.43013        0.61886
