24
1sa1ma1dma_15.log	Energy: -584313.0258991
S          0.37843       -0.45829        0.04317
O         -0.43374       -1.23617        0.96728
O          1.35111       -1.13216       -0.80153
O         -0.57583        0.37641       -0.87059
O          1.13638        0.63155        0.89457
H         -1.57399        0.39432       -0.43028
H          2.02690        0.88281        0.42026
N         -2.86879        0.29080        0.19638
C         -3.51545       -0.91806       -0.32554
C         -3.68800        1.49709        0.07460
H         -2.61654        0.12897        1.16915
H         -3.67300       -0.79951       -1.40076
H         -2.84974       -1.76628       -0.15735
H         -4.48296       -1.10693        0.15636
H         -3.85992        1.70333       -0.98513
H         -4.66043        1.38973        0.57216
H         -3.15437        2.34488        0.50887
N          3.39478        1.04071       -0.34548
H          3.14755        0.81188       -1.30478
C          4.32027        0.03003        0.18773
H          5.27200       -0.01159       -0.35352
H          4.51940        0.24696        1.23952
H          3.82997       -0.94298        0.12418
H          3.81410        1.96498       -0.34434
