29
1sa1dma1eda_81.log	Energy: -643706.0155342
S         -2.14228       -0.54665       -0.04480
O         -3.40936       -1.25753       -0.11201
O         -1.62992       -0.19044        1.28963
O         -1.06217       -1.12633       -0.89441
O         -2.43807        0.93347       -0.71605
H         -3.18273        0.82134       -1.32047
H          2.75298       -1.36647        1.73651
H          1.72095       -2.64588        1.07334
H          3.69371       -2.51434       -0.31407
H          2.31899       -1.90944       -1.24165
H          4.39761       -0.24748       -0.01736
H          3.93869       -0.31085       -1.58255
H          1.32508        0.32211        0.57938
H          0.37205       -0.94314       -0.03651
C          2.13980       -1.65565        0.87703
C          2.97650       -1.68463       -0.39524
N          1.02959       -0.69683        0.74756
N          3.60020       -0.38456       -0.63015
H          0.39079       -0.68341        1.54882
N          1.30766        1.98530        0.20735
C          0.35961        2.70810        1.05859
C          0.91121        1.98002       -1.20263
H          2.23463        2.38965        0.29097
H         -0.59422        2.17303        1.06313
H          0.74051        2.74007        2.08305
H          0.18400        3.73776        0.71471
H         -0.06359        1.49381       -1.29944
H          0.83193        2.99311       -1.62296
H          1.64644        1.40877       -1.77519
