29
1sa1dma1eda_38.log	Energy: -643708.5561695
S         -2.15803       -0.56012       -0.07135
O         -2.67999       -1.79407       -0.64243
O         -2.26818        0.67020       -0.86123
O         -3.09810       -0.25140        1.24081
O         -0.77519       -0.70227        0.49008
H         -3.44157       -1.10124        1.54443
H         -0.00468        0.66428        0.14211
H          3.67902       -1.18761        1.66182
H          1.98735       -0.74024        1.94458
H          2.19596       -2.57626        0.30766
H          1.39881       -1.17585       -0.37546
H          4.17603       -1.97157       -0.89370
H          2.97796       -1.71409       -1.96761
H          3.56057        1.16368        1.53940
H          3.66556        0.63791       -0.01472
C          2.79296       -0.72242        1.20427
C          2.36378       -1.53899       -0.01153
N          3.06175        0.66993        0.80656
N          3.35673       -1.40179       -1.08098
N          0.52961        1.55239       -0.08299
C         -0.17490        2.68133        0.55411
C          0.64944        1.66943       -1.55020
H          1.48824        1.39881        0.32329
H         -1.18233        2.73393        0.13888
H         -0.23859        2.49407        1.62659
H          0.36950        3.60981        0.36854
H         -0.35035        1.62895       -1.98378
H          1.14941        2.60735       -1.80185
H          1.24504        0.83057       -1.91458
