27
1sa1ma1tma_13.log	Energy: -608971.3518888
S         -1.63994       -0.32475       -0.02470
O         -1.11823       -0.03132        1.30998
O         -2.12197        0.80952       -0.81418
O         -0.70175       -1.20324       -0.79741
O         -2.94669       -1.26046        0.25256
H         -3.52995       -1.17078       -0.51232
N          0.45304        2.36945        0.03114
H         -0.27513        2.20595       -0.66163
C          0.89721        3.76118       -0.00888
H          0.09541        4.49922        0.13584
H          1.65326        3.92830        0.76480
H          1.36961        3.96434       -0.97496
H         -0.00561        2.16106        0.91463
N          1.78435       -1.02749       -0.03975
C          1.94151       -0.55824        1.35829
H          1.60267        0.47556        1.40483
H          1.31168       -1.16708        2.00612
H          2.99399       -0.63990        1.64347
C          2.22502       -2.42854       -0.21028
H          1.66178       -3.05965        0.47774
H          2.01528       -2.73944       -1.23419
H          3.29549       -2.50631       -0.00456
C          2.43804       -0.10401       -0.99912
H          2.23529       -0.45429       -2.01209
H          1.99885        0.88724       -0.84494
H          3.51537       -0.09312       -0.81233
H          0.73773       -1.02732       -0.28248
