29
1sa1dma1eda_63.log	Energy: -643707.3400561
S         -0.30767       -0.45624       -0.65042
O          0.84600       -0.28764       -1.53133
O         -1.55542       -0.93138       -1.29656
O          0.04400       -1.62239        0.39138
O         -0.58550        0.76054        0.18312
H          1.03354       -1.57349        0.60945
H         -2.22377        0.84881        0.42214
H          4.89565        0.57957        0.80246
H          3.92957        1.99076        1.21350
H          2.98563        0.01098        2.31731
H          1.85241        0.68061        1.14451
H          2.68051       -1.05254       -0.39933
H          3.42389       -1.78184        0.87935
H          4.01863        0.56353       -1.34815
H          2.81197        1.59635       -0.99216
C          3.91486        1.04821        0.65221
C          2.81311        0.16230        1.24602
N          3.77273        1.35506       -0.76493
N          2.66932       -1.15690        0.61517
N         -3.19288        0.45017        0.26868
C         -4.15268        1.47458       -0.17453
C         -3.59100       -0.32972        1.45673
H         -2.93090       -0.20489       -0.50476
H         -4.29621        2.20801        0.62077
H         -3.74981        1.96758       -1.05926
H         -5.10671        1.00323       -0.41689
H         -3.71222        0.34278        2.30744
H         -4.52945       -0.84950        1.25671
H         -2.80239       -1.05366        1.66572
