32
1sa1eda1tma_38.log	Energy: -668364.7266804
S         -1.51649       -1.22819        0.12457
O         -0.82866       -2.40451        0.64596
O         -2.10541       -0.29655        1.09006
O         -0.71102       -0.48819       -0.90148
O         -2.80712       -1.80103       -0.70182
H         -2.58034       -2.69217       -0.99712
H          2.96877       -1.18539        1.63097
H          1.33036       -0.59043        1.34823
H          1.89316       -2.23696       -0.32989
H          1.69322       -0.66724       -1.08869
H          4.27542       -1.94533       -0.52745
H          3.68743       -1.46026       -1.96897
H          3.15805        1.14334        1.73204
H          3.65106        0.77785        0.22055
C          2.34996       -0.58032        0.94857
C          2.34325       -1.24069       -0.42301
N          2.83561        0.80160        0.83193
N          3.70168       -1.24002       -0.97988
N         -0.51358        2.03955       -0.20822
C         -1.87086        2.51027       -0.57005
H         -2.04463        2.29843       -1.62556
H         -2.58896        1.95446        0.03411
H         -1.94652        3.58407       -0.38191
C         -0.23378        2.22461        1.23749
H         -0.96357        1.64140        1.79907
H          0.77764        1.86134        1.42486
H         -0.30689        3.28877        1.47762
C          0.54949        2.63422       -1.05086
H          1.50280        2.20236       -0.73572
H          0.34656        2.39131       -2.09489
H          0.55554        3.71870       -0.91326
H         -0.52184        0.99255       -0.41850
