18
1sa1a1ma_10.log	Energy: -534992.9312635
S          1.31906       -0.21256       -0.08321
O          0.06917       -0.69450        0.52497
O          2.02009       -1.11075       -0.98680
O          1.13209        1.16812       -0.63396
O          2.30001       -0.01557        1.21221
H         -0.25921        1.70385       -0.24556
H          3.20932       -0.08704        0.89372
N         -2.56429       -0.39052       -0.58178
H         -2.93424       -0.56834       -1.51005
C         -3.48323       -0.88640        0.44940
H         -3.71515       -1.95228        0.34491
H         -3.02187       -0.73854        1.42901
H         -4.41894       -0.32146        0.41833
H         -1.66852       -0.87770       -0.49858
N         -1.26747        1.94019        0.06364
H         -1.89054        1.10801       -0.23611
H         -1.58220        2.81599       -0.34336
H         -1.27280        2.01079        1.07813
