24
1sa1a1tma_03.log	Energy: -584318.3873946
S         -1.05057       -0.70068        0.02131
O         -1.04871       -0.35068        1.44745
O         -2.25216       -1.35691       -0.47625
O         -0.90998        0.72608       -0.77304
O          0.22561       -1.36971       -0.40071
H         -1.76563        1.21240       -0.59734
H          1.35732       -0.49215       -0.13379
N         -3.40864        1.47263        0.03556
H         -3.29022        1.34440        1.03693
H         -3.84510        0.62371       -0.31687
H         -4.03374        2.25453       -0.12219
N          2.20107        0.20129       -0.00366
C          3.39024       -0.61203        0.32059
H          3.21009       -1.13940        1.25780
H          3.54838       -1.34056       -0.47557
H          4.26756        0.03342        0.41768
C          2.33526        0.91178       -1.29521
H          2.56878        0.18410       -2.07309
H          1.37624        1.37942       -1.52038
H          3.13068        1.65902       -1.22601
C          1.84021        1.12679        1.09682
H          0.93452        1.66078        0.81078
H          1.62466        0.54270        1.99126
H          2.66621        1.82164        1.27373
