26
1sa1ma1eda_89.log	Energy: -619046.0949545
S         -1.85915        0.53950       -0.17195
O         -2.89559        1.09015       -1.03226
O         -1.67534       -0.92178       -0.23885
O         -0.54680        1.24419       -0.22554
O         -2.34574        0.85698        1.36632
H         -3.31045        0.89686        1.34842
H          0.38932       -1.27838       -1.45903
H          2.15678       -1.46304       -1.58010
H          0.77093       -3.58185       -1.00594
H          2.16561       -3.26302        0.03648
H         -0.57364       -2.44270        0.73474
H          0.31799       -3.63795        1.46786
H          0.66837        0.24601        0.04945
H          1.28066       -0.94645        1.05468
C          1.29985       -1.50928       -0.90511
C          1.17529       -2.89180       -0.25308
N          1.44343       -0.47231        0.15354
N          0.36883       -2.76738        0.95462
H          2.34846        0.04640        0.12406
N          3.49986        1.49064       -0.10864
H          4.38779        1.49182        0.38343
C          2.64595        2.59523        0.36468
H          3.09104        3.58566        0.21632
H          1.68286        2.55917       -0.15061
H          2.44959        2.46011        1.43107
H          3.71754        1.61750       -1.09262
