26
1sa1ma1eda_64.log	Energy: -619046.3712030
S         -0.58718       -0.98962       -0.27628
O         -1.93287       -1.52327       -0.16201
O          0.25461       -1.37648       -1.39015
O         -0.68031        0.60079       -0.31424
O          0.13981       -1.26724        1.07723
H         -1.54077        0.89166        0.19103
H          1.11214       -0.81448        1.13059
H          4.30520        0.39866        0.57260
H          3.56649       -1.07332       -0.10233
H          3.50747        0.97101       -1.63019
H          1.95801        0.17574       -1.36363
H          2.58855        2.83855       -0.74962
H          1.16918        2.04083       -0.49881
H          2.84783       -0.52475        2.19595
H          2.16439        0.84809        1.58959
C          3.36078       -0.05808        0.24863
C          2.73654        0.77023       -0.87862
N          2.41021       -0.12059        1.37299
N          2.17088        2.01278       -0.34290
N         -2.96249        1.09618        0.85277
H         -3.08998        0.19466        1.30721
C         -3.95290        1.25457       -0.22201
H         -4.98720        1.22368        0.13798
H         -3.78325        2.20696       -0.72918
H         -3.80575        0.44895       -0.94381
H         -3.06425        1.81836        1.55843
