24
1sa1a1tma_04.log	Energy: -584317.5588901
S          1.62097       -0.29729       -0.11710
O          2.88328       -0.60967       -0.76477
O          0.55443        0.23586       -1.02061
O          1.07362       -1.31123        0.79417
O          1.91658        1.03258        0.81706
H          2.83537        0.97461        1.10914
N         -0.78024        2.77700       -0.08570
H         -0.96132        3.59889       -0.65334
H         -0.13417        2.17898       -0.60215
H         -0.26452        3.09284        0.73035
N         -1.81356       -0.45402       -0.02904
C         -2.86840        0.26128       -0.78406
H         -2.71897        1.33086       -0.62584
H         -2.76463        0.02249       -1.84338
H         -3.84933       -0.05728       -0.42243
C         -1.86767       -1.92285       -0.22435
H         -1.80157       -2.13498       -1.29208
H         -1.00929       -2.36151        0.28510
H         -2.80772       -2.30678        0.17943
C         -1.82697       -0.08696        1.40994
H         -0.97306       -0.56861        1.88683
H         -1.73196        0.99759        1.47546
H         -2.76757       -0.42309        1.85376
H         -0.87514       -0.13737       -0.41998
