24
1sa1a1tma_01.log	Energy: -584320.1174558
S         -0.98338       -0.52968        0.06106
O         -0.13908       -1.45068       -0.70907
O         -2.13215       -1.09643        0.76426
O         -0.12356        0.31612        0.97406
O         -1.55244        0.50186       -1.03294
H         -2.42684        0.87228       -0.70277
N         -3.93983        1.14942        0.07996
H         -4.03055        1.94847        0.69730
H         -3.85383        0.30797        0.64963
H         -4.78128        1.07883       -0.48106
N          2.27393        0.28873        0.07419
C          2.16163        0.60224       -1.37008
H          1.54630       -0.16872       -1.83447
H          1.66399        1.56654       -1.48006
H          3.15922        0.63702       -1.81685
C          3.02296        1.32517        0.81122
H          2.53621        2.28886        0.65638
H          3.00799        1.08489        1.87503
H          4.05488        1.36668        0.45181
C          2.82035       -1.06952        0.29612
H          2.85189       -1.26269        1.36916
H          2.14326       -1.78091       -0.17786
H          3.82652       -1.13552       -0.12748
H          1.24587        0.28969        0.47113
