21
1sa1a1dma_14.log	Energy: -559640.9799978
S         -0.83023       -0.76251       -0.11457
O          0.12233       -1.49550       -0.91444
O         -2.19522       -1.20428        0.05644
O         -0.24142       -0.65855        1.38380
O         -0.81369        0.72650       -0.59837
H          0.72853       -0.64605        1.33952
H         -1.69637        1.20616       -0.30990
N          2.67857        0.48236       -0.56577
C          2.37167        1.75519        0.05314
C          3.22548       -0.49169        0.34861
H          1.87639        0.10617       -1.05764
H          3.29534        2.21664        0.42034
H          1.92631        2.42646       -0.68439
H          1.67304        1.67950        0.90876
H          4.22707       -0.18497        0.67078
H          2.63723       -0.62762        1.28527
H          3.30380       -1.46401       -0.14155
N         -3.09880        1.73716        0.12241
H         -3.10417        2.27053        0.98608
H         -3.61956        0.87622        0.27768
H         -3.58119        2.27809       -0.58826
