24
1sa1a1tma_06.log	Energy: -584315.5512877
S          1.53955       -0.24649       -0.02565
O          0.46870       -0.92980       -0.82156
O          2.24912        0.77398       -0.79677
O          1.04796        0.14214        1.29730
O          2.63602       -1.41426        0.28212
H          3.25419       -1.42789       -0.46015
N         -0.08308        2.75299        0.00761
H         -0.13928        3.76435        0.07371
H          0.59835        2.53500       -0.71767
H          0.35145        2.41255        0.86326
N         -1.95167       -0.36373       -0.03653
C         -2.05231        0.17793        1.34048
H         -1.50429       -0.47761        2.01630
H         -1.58880        1.16300        1.34722
H         -3.10754        0.24155        1.62004
C         -2.46247        0.60179       -1.04020
H         -1.89912        1.53144       -0.91922
H         -2.29736        0.18693       -2.03537
H         -3.53029        0.76527       -0.87147
C         -2.58816       -1.69307       -0.15886
H         -2.40258       -2.08121       -1.16076
H         -2.14164       -2.36574        0.57399
H         -3.66262       -1.60164        0.01821
H         -0.91676       -0.52340       -0.27251
