27
1sa1ma1tma_08.log	Energy: -608974.0903074
S         -1.64635       -0.18534        0.01766
O         -1.05562       -0.63570        1.28123
O         -2.53813        0.96543        0.04891
O         -0.59096       -0.07867       -1.04607
O         -2.56602       -1.45768       -0.44712
H         -3.27700       -1.10831       -0.99989
N          1.12346        2.35196       -0.66301
H          1.43691        3.07923       -1.29771
C          0.47999        2.95706        0.50863
H         -0.35254        3.62926        0.26618
H          0.07797        2.16590        1.14786
H          1.22176        3.51573        1.08862
H          0.43039        1.79539       -1.16150
N          1.72652       -0.85991       -0.00585
C          1.45536       -2.30088        0.21454
H          0.65283       -2.38305        0.94786
H          1.12929       -2.74300       -0.72750
H          2.36589       -2.78982        0.56907
C          2.74097       -0.62784       -1.05868
H          2.39877       -1.09487       -1.98314
H          2.83289        0.45031       -1.19796
H          3.69319       -1.06461       -0.74766
C          2.07662       -0.16550        1.25770
H          2.23420        0.88745        1.02276
H          1.23731       -0.27496        1.94461
H          2.98379       -0.61520        1.66986
H          0.81435       -0.45242       -0.37079
