30
1sa1dma1tma_07.log	Energy: -633635.1891648
S         -2.29341       -0.37015       -0.15405
O         -3.24385       -1.06701       -1.00848
O         -2.34747        1.09590       -0.11723
O         -2.67859       -0.83079        1.37840
O         -0.87470       -0.82655       -0.31042
H         -3.33809       -1.53072        1.29462
H         -0.02008        0.51798       -0.12265
N          0.64363        1.33120        0.02835
C          0.35453        1.92635        1.34753
C          0.50336        2.26908       -1.10079
H          1.58573        0.86016        0.02983
H         -0.67238        2.29364        1.34250
H          0.45023        1.14880        2.10656
H          1.05956        2.73552        1.55008
H         -0.53058        2.61515       -1.13343
H          1.19078        3.10809       -0.97311
H          0.73282        1.73840       -2.02573
N          2.75113       -0.51391       -0.00487
C          4.17341       -0.24452        0.16854
H          4.52151        0.43198       -0.61723
H          4.34353        0.23353        1.13742
H          4.77642       -1.16730        0.12578
C          2.23749       -1.37425        1.06313
H          2.40917       -0.89714        2.03292
H          1.16284       -1.52641        0.92478
H          2.73480       -2.35788        1.06842
C          2.47669       -1.10908       -1.31376
H          1.39974       -1.26574       -1.42645
H          2.82424       -0.43535       -2.10294
H          2.98492       -2.07940       -1.43712
