26
1sa1ma1eda_125.log	Energy: -619043.9541125
S         -1.83981       -0.39301        0.01437
O         -2.38707        0.93507       -0.26116
O         -1.41086       -1.18688       -1.14660
O         -0.79314       -0.38067        1.08159
O         -3.07468       -1.26211        0.62711
H         -3.62170       -0.65870        1.14687
H          2.50735       -0.57485       -1.77892
H          1.40788        0.61460       -1.00726
H          3.74426        0.84783       -0.13465
H          2.61214        0.37108        1.13035
H          4.57273       -1.38252       -0.15366
H          4.27211       -1.17201        1.43891
H          0.51459       -1.68965       -1.03570
H          1.81677       -2.13571       -0.01713
C          2.04942       -0.26105       -0.83613
C          3.10899        0.02562        0.21795
N          1.20786       -1.37989       -0.34168
N          3.83838       -1.20798        0.52433
H          0.57579       -1.04287        0.43637
N          0.25225        2.46219       -0.74268
H          0.37896        3.28764       -1.31843
C          0.49311        2.76973        0.66743
H         -0.09558        3.61288        1.05540
H          0.23826        1.88614        1.25958
H          1.55427        2.99790        0.82169
H         -0.71348        2.15722       -0.85609
