24
1sa1ma1dma_25.log	Energy: -584312.3778983
S         -1.84412       -0.04736        0.08020
O         -3.24277        0.23017        0.36910
O         -0.90591        0.21183        1.20642
O         -1.76633       -1.67502       -0.15282
O         -1.30717        0.49377       -1.18728
H         -2.56291       -2.04679        0.24682
H          0.29357        1.35153       -0.92451
N          2.67269       -0.76668       -0.39998
C          1.61284       -1.75213       -0.65383
C          3.30470       -0.95770        0.90591
H          3.37777       -0.83660       -1.12717
H          0.82554       -1.63692        0.09590
H          1.16254       -1.57041       -1.63190
H          1.98387       -2.78562       -0.61267
H          2.55531       -0.80099        1.68825
H          3.72172       -1.96667        1.03549
H          4.10597       -0.22622        1.04153
N          1.01475        1.47395       -0.18871
H          0.46070        1.16305        0.63969
C          1.54313        2.84255       -0.08294
H          2.25347        2.89464        0.74290
H          2.04736        3.11362       -1.01110
H          0.72377        3.53778        0.10053
H          1.75860        0.73415       -0.34423
