32
1sa1eda1tma_47.log	Energy: -668364.2024465
S          0.69723       -1.61647       -0.10902
O          0.65214       -0.99002        1.21872
O         -0.27948       -2.65462       -0.40484
O          0.78421       -0.56319       -1.17154
O          2.16148       -2.34831       -0.13004
H          2.08817       -3.11687       -0.71074
H         -2.55319       -1.32993       -0.05209
H         -4.10236       -0.74450        0.53265
H         -3.70835        0.23313       -1.58083
H         -3.66772        1.50684       -0.35650
H         -1.19797        0.30131       -1.40718
H         -1.88708        1.63899       -2.02552
H         -1.42787       -0.24774        1.57822
H         -2.61992        0.86945        1.86726
C         -3.06412       -0.44295        0.33954
C         -3.11757        0.63829       -0.74399
N         -2.42976       -0.08935        1.59979
N         -1.78901        1.09874       -1.17076
N          1.26076        1.75073        0.08191
C          2.63308        1.47407        0.57115
H          2.57289        0.67100        1.30580
H          3.24495        1.14764       -0.27037
H          3.04814        2.38166        1.01554
C          1.24361        2.74993       -1.00957
H          1.83777        2.37096       -1.84190
H          0.20868        2.88582       -1.32354
H          1.66023        3.69227       -0.64611
C          0.33971        2.12710        1.18281
H         -0.66607        2.16687        0.75987
H          0.38923        1.35013        1.94432
H          0.65006        3.09332        1.58923
H          0.92575        0.84269       -0.34845
