30
1sa1dma1tma_10.log	Energy: -633633.0439421
S          1.94253       -0.07254       -0.04181
O          1.53785        0.93404       -1.04968
O          1.36925        0.16425        1.28718
O          1.79133       -1.45607       -0.53054
O          3.54360        0.14922        0.19647
H          3.99107       -0.04863       -0.63660
N         -1.11067        1.50460       -0.08537
C         -1.16011        2.12342        1.24050
C         -1.96027        2.17448       -1.06712
H         -0.13882        1.50965       -0.42281
H         -2.15889        1.99340        1.67444
H         -0.41522        1.63683        1.87273
H         -0.94328        3.19912        1.19847
H         -3.01270        2.08981       -0.77280
H         -1.72086        3.24175       -1.16582
H         -1.82906        1.70260       -2.04466
N         -1.72145       -1.08388        0.03920
C         -1.31672       -1.68741       -1.25308
H         -1.71420       -1.07398       -2.06419
H         -0.22501       -1.70874       -1.30058
H         -1.72183       -2.70116       -1.32511
C         -1.10547       -1.78874        1.18936
H         -0.02682       -1.82979        1.04352
H         -1.31967       -1.22849        2.10057
H         -1.52737       -2.79604        1.25906
C         -3.18941       -1.01075        0.17409
H         -3.43597       -0.49258        1.10273
H         -3.60027       -0.45511       -0.67073
H         -3.61688       -2.01703        0.19192
H         -1.38426       -0.00359        0.02205
