30
1sa1dma1tma_16.log	Energy: -633631.6446274
S         -1.78593        0.45020        0.02680
O         -1.83287       -0.59296        1.05480
O         -1.83874        1.84000        0.46692
O         -0.67009        0.19088       -0.94312
O         -3.15034        0.20657       -0.84000
H         -3.41290        1.06336       -1.20049
N          2.54490        1.42376        0.11830
C          1.73710        2.16016        1.09035
C          2.22577        1.81617       -1.25360
H          3.52559        1.61850        0.29625
H          0.67801        1.94034        0.92956
H          2.00490        1.85322        2.10629
H          1.86239        3.25235        1.01416
H          1.18416        1.55400       -1.46024
H          2.35368        2.89584       -1.43517
H          2.86879        1.27252       -1.95384
N          0.85385       -1.73930       -0.00910
C         -0.01720       -2.92979       -0.15018
H         -0.93205       -2.74467        0.41368
H         -0.26139       -3.06109       -1.20500
H          0.50864       -3.81037        0.22716
C          2.06834       -1.81611       -0.85098
H          1.76777       -1.91729       -1.89478
H          2.62529       -0.88882       -0.70573
H          2.66635       -2.67983       -0.54871
C          1.18807       -1.46437        1.41100
H          1.79976       -0.56141        1.43339
H          0.25381       -1.30413        1.94967
H          1.73843       -2.31650        1.81865
H          0.27611       -0.91259       -0.36640
