23
1sa1a1eda_71.log	Energy: -594380.2217315
S          1.80031        0.48155        0.07743
O          1.04169        0.15606       -1.15832
O          1.75915        1.87791        0.47468
O          1.49145       -0.51102        1.14439
O          3.35963        0.14333       -0.26303
H          3.76628        0.95922       -0.58368
H         -2.20295       -2.49831       -0.46765
H         -1.70910       -2.44473        1.23913
H         -3.04777       -0.47033        0.74135
H         -1.39223        0.03132        1.07061
H         -2.50674       -0.18805       -1.64847
H         -3.70396        1.56495       -0.24350
H          0.11910       -3.04242       -0.28811
H          0.04238       -1.51566       -0.97518
C         -1.59865       -1.95799        0.26683
C         -2.02620       -0.48883        0.34501
N         -0.16966       -2.07920       -0.13443
N         -1.99222        0.25659       -0.89755
H          0.48796       -1.60705        0.56516
N         -4.59207        1.56655        0.25859
H         -5.29817        1.96687       -0.34937
H         -1.05136        0.49986       -1.19699
H         -4.49691        2.18273        1.05879
