26
1sa1ma1eda_06.log	Energy: -619050.0357385
S         -1.85706       -0.71518       -0.04475
O         -2.73665       -1.83880       -0.32555
O         -1.03939       -0.87835        1.19280
O         -1.04400       -0.19818       -1.15765
O         -2.84988        0.55846        0.28339
H         -3.64042        0.19938        0.70643
H          1.86529       -1.94802        0.05616
H          1.31075       -0.88086       -1.23909
H          3.78408       -1.30896       -1.41331
H          3.45535        0.39969       -1.11017
H          4.38673       -1.52142        0.89624
H          5.04723       -0.08603        0.47945
H          2.11166        0.11209        1.39264
H          1.22560        0.95205        0.18828
C          1.95329       -0.93975       -0.35896
C          3.40521       -0.59981       -0.66526
N          1.42297        0.01043        0.64417
N          4.16946       -0.58070        0.58309
H          0.49067       -0.33346        1.00397
N          0.42751        2.27209       -0.62833
H          0.87580        2.92277       -1.26451
C         -0.36895        2.99130        0.37549
H         -1.11817        3.66068       -0.06254
H         -0.90112        2.26220        0.99149
H          0.29185        3.57902        1.01920
H         -0.18998        1.66553       -1.17236
