32
1sa1eda1tma_46.log	Energy: -668363.8305090
S         -1.77404       -0.97965        0.09005
O         -1.32456       -1.51097        1.37428
O         -0.73601       -0.67760       -0.89964
O         -2.64730       -2.16769       -0.60825
O         -2.72243        0.17209        0.23160
H         -3.11497       -2.63417        0.09684
H         -2.05701        1.37368       -0.49970
H         -0.69593        3.94648        0.09368
H         -1.66641        2.89622        1.16200
H          0.83532        2.70076        1.59211
H          0.09871        1.16888        1.11978
H          1.85326        2.79603       -0.51904
H          1.72999        1.14335       -0.40390
H         -2.03313        2.81529       -1.42208
H         -0.64717        1.85920       -1.34177
C         -0.91909        2.91159        0.36697
C          0.36241        2.16718        0.75794
N         -1.47364        2.21471       -0.82357
N          1.19958        2.02704       -0.42546
N          2.72826       -0.52576       -0.08038
C          2.46389       -1.43783       -1.18691
H          1.38610       -1.58533       -1.28158
H          2.83973       -1.00152       -2.11779
H          2.95526       -2.41733       -1.03973
C          4.14734       -0.24004        0.04511
H          4.52705        0.18532       -0.88930
H          4.31051        0.48846        0.84630
H          4.73923       -1.14498        0.27754
C          2.18749       -1.05117        1.16820
H          2.32742       -0.31524        1.96760
H          1.11879       -1.24938        1.05981
H          2.68860       -1.98821        1.47259
