24
1sa1ma1dma_22.log	Energy: -584313.4840055
S         -1.67926       -0.10788        0.12526
O         -3.04370        0.04429        0.60224
O         -0.58800        0.02425        1.09887
O         -1.54271       -1.68358       -0.33990
O         -1.38089        0.67366       -1.11484
H         -2.39808       -1.95181       -0.69936
H          0.09476        1.24595       -1.01639
N          2.60044       -0.61346       -0.18413
C          1.92707       -1.72861       -0.86237
C          2.54678       -0.74543        1.27782
H          3.57304       -0.59171       -0.47755
H          0.86783       -1.72862       -0.59399
H          2.00999       -1.60146       -1.94530
H          2.35494       -2.70277       -0.58729
H          1.49993       -0.71065        1.58898
H          2.99461       -1.68605        1.62827
H          3.07930        0.09100        1.73950
N          1.07865        1.62475       -0.84728
H          1.70842        0.78663       -0.62537
C          1.06268        2.57130        0.29059
H          2.07436        2.92753        0.49139
H          0.40986        3.41270        0.05678
H          0.66416        2.03411        1.15095
H          1.40474        2.06975       -1.70199
