29
1sa1dma1eda_74.log	Energy: -643707.2579277
S          0.14858        1.05139        0.06789
O          0.24950       -0.05869        1.10210
O         -0.23617        0.44462       -1.22639
O         -0.69014        2.15828        0.50690
O          1.61598        1.62751       -0.06152
H          2.27615        0.86987       -0.24870
H         -3.78375       -1.77726        0.98564
H         -2.91903       -0.58339        1.99682
H         -4.35694        0.37327        0.05739
H         -2.69494        0.95947        0.15055
H         -3.83075       -0.39755       -2.00814
H         -2.23903        0.02632       -1.80026
H         -1.59108       -2.55038        1.07023
H         -1.75570       -1.75814       -0.39988
C         -3.00972       -1.00516        0.99406
C         -3.30977        0.07774       -0.05458
N         -1.71938       -1.64526        0.62654
N         -3.03523       -0.45634       -1.38796
H         -0.85877       -0.99189        0.85886
N          3.30396       -0.39389       -0.38944
C          2.63919       -1.44696       -1.15744
C          3.60052       -0.79385        0.98731
H          4.15941       -0.11643       -0.86061
H          1.67563       -1.65848       -0.68760
H          2.44144       -1.09061       -2.17013
H          3.23016       -2.37401       -1.20090
H          2.65250       -0.94088        1.51195
H          4.19433       -1.71839        1.04005
H          4.14287        0.01029        1.48968
