30
1sa1dma1tma_06.log	Energy: -633637.4433294
S          2.13235       -0.16261        0.05475
O          3.51296       -0.05530        0.49903
O          1.69878        0.94056       -0.85523
O          2.07373       -1.51823       -0.88177
O          1.10369       -0.43712        1.06767
H          2.93413       -1.60445       -1.31167
H         -1.27794        0.60762       -0.01964
N         -0.78785        1.55488       -0.09972
C         -0.70779        2.16273        1.24223
C         -1.48492        2.37540       -1.10281
H          0.19508        1.34109       -0.43376
H         -1.71529        2.31143        1.63848
H         -0.14154        1.48217        1.87848
H         -0.19128        3.12228        1.17749
H         -2.51684        2.54825       -0.78836
H         -0.97241        3.33206       -1.21947
H         -1.47628        1.84656       -2.05689
N         -2.11549       -0.88425        0.03702
C         -1.92772       -1.44186        1.37815
H         -0.85836       -1.51480        1.58515
H         -2.38639       -0.77705        2.11689
H         -2.39170       -2.43750        1.47029
C         -3.53119       -0.71957       -0.27376
H         -3.99927       -0.06129        0.46473
H         -3.64514       -0.26866       -1.26455
H         -4.06903       -1.68206       -0.26896
C         -1.44552       -1.71243       -0.96792
H         -1.53977       -1.24242       -1.95190
H         -0.38479       -1.80020       -0.72550
H         -1.88790       -2.72050       -1.02076
