26
1sa1ma1eda_135.log	Energy: -619042.2999134
S         -1.53896       -0.50831       -0.07947
O         -2.14045        0.59505       -0.82830
O         -0.47215       -1.23422       -0.78970
O         -1.12784       -0.17321        1.31134
O         -2.74683       -1.57731        0.17229
H         -3.31876       -1.55027       -0.60585
H          1.37007        0.80896        0.14184
H          2.57949        0.84625        1.43877
H          3.46156        0.50194       -0.95129
H          4.03583       -0.70760        0.20866
H          1.72764       -1.17024       -1.56659
H          3.20115       -1.92237       -1.63638
H          0.39793       -0.65197        1.52801
H          1.38171       -1.67816        0.63559
C          2.12014        0.21389        0.67731
C          3.14650       -0.33550       -0.31390
N          1.40897       -0.91832        1.33915
N          2.54327       -1.45383       -1.02717
H          1.87589       -1.25321        2.17787
N          0.26801        2.47901       -0.80560
H          0.56220        3.15350       -1.50360
C         -0.11945        3.15354        0.43393
H         -0.89738        3.92005        0.31041
H         -0.50133        2.40499        1.13417
H          0.75851        3.62832        0.88589
H         -0.53782        1.98081       -1.17975
