26
1sa1ma1eda_65.log	Energy: -619048.2308850
S          1.38293       -0.84621       -0.05779
O          2.40654        0.19059       -0.23583
O          0.54536       -0.70870        1.14502
O          0.55846       -1.05415       -1.27944
O          2.17972       -2.24130        0.19406
H          2.91010       -2.27955       -0.43768
H         -3.29868        1.31157       -0.04772
H         -2.98664        0.75661       -1.71542
H         -4.24374       -0.93278       -0.29087
H         -2.73221       -1.55970       -0.95502
H         -3.33444       -1.68673        1.64142
H         -1.77358       -1.46982        1.18054
H         -0.86799        1.67767       -0.60430
H         -1.09343        0.49359        0.53681
C         -2.77216        0.57596       -0.65957
C         -3.15537       -0.84353       -0.23586
N         -1.32298        0.74084       -0.43583
N         -2.71018       -1.07490        1.13348
H         -0.75888        0.05534       -0.99028
N          0.63919        2.70700       -0.48008
H          1.36668        2.05408       -0.77928
C          0.84536        2.98764        0.94930
H          1.80666        3.46902        1.16204
H          0.04201        3.63156        1.31914
H          0.81949        2.04216        1.49738
H          0.74796        3.55374       -1.02882
