27
1sa1ma1tma_05.log	Energy: -608973.8420584
S         -1.67439       -0.45163       -0.07371
O         -0.59108       -0.15498       -1.06186
O         -2.82851       -1.15324       -0.61345
O         -1.10325       -0.98652        1.17107
O         -2.20510        1.06384        0.28110
H         -3.15207        0.99618        0.45812
N          1.03210        2.36128       -0.65761
H          1.31224        3.02256       -1.37473
C          0.48196        3.07920        0.49557
H         -0.33538        3.76880        0.24720
H          0.08417        2.35472        1.21110
H          1.27705        3.64758        0.98931
H          0.30509        1.77155       -1.06147
N          1.74841       -0.84619       -0.00181
C          2.79389       -0.48686       -0.98696
H          2.55568       -0.96012       -1.94043
H          2.78304        0.59925       -1.09463
H          3.76443       -0.83770       -0.62716
C          1.97100       -0.17586        1.30360
H          2.07087        0.89288        1.11338
H          1.09985       -0.36918        1.93002
H          2.88082       -0.57693        1.75766
C          1.59256       -2.31248        0.15449
H          0.76326       -2.49147        0.83927
H          1.35886       -2.74530       -0.81880
H          2.52289       -2.73478        0.54207
H          0.82288       -0.49427       -0.39072
