31
1sa2eda_76.log	Energy: -678440.7208727
S         -0.00004       -1.35125       -0.00003
O          1.23911       -2.07380       -0.21565
O         -1.23937       -2.07357        0.21532
O          0.17251       -0.37445        1.22314
O         -0.17235       -0.37404       -1.22292
H          1.15339        0.01287        1.28252
H         -1.15326        0.01312       -1.28247
H          4.55876        0.27210        0.75478
H          3.39431       -1.03091        0.39848
H          3.89933        0.25050       -1.63853
H          2.20184        0.41677       -1.18499
H          4.26926        2.46079       -0.84885
H          2.78774        2.59524       -1.52677
H          2.87408        0.36424        2.40344
H          2.55786        1.59675        1.35669
C          3.52116        0.05161        0.46540
C          3.22091        0.68110       -0.88946
N          2.56977        0.58120        1.45908
N          3.30844        2.14124       -0.78635
H         -4.55884        0.27273       -0.75509
H         -3.39475       -1.03067       -0.39904
H         -3.89983        0.25038        1.63824
H         -2.20219        0.41612        1.18511
H         -4.26872        2.46108        0.84952
H         -2.78697        2.59473        1.52711
H         -2.87404        0.36503       -2.40352
H         -2.55746        1.59706       -1.35629
C         -3.52133        0.05190       -0.46565
C         -3.22109        0.68093        0.88943
N         -2.56970        0.58154       -1.45907
N         -3.30806        2.14112        0.78672
