21
1sa2ma_07.log	Energy: -559655.0564885
S          1.52699       -0.12098       -0.13764
O          2.89566       -0.32840       -0.57465
O          0.46104       -0.17357       -1.15013
O          1.15054       -1.43451        0.80287
O          1.34534        1.04244        0.77907
H          1.96206       -1.70823        1.24923
H         -0.22148        1.41028        0.86026
N         -1.27133        1.53280        0.73727
H         -1.66321        0.53526        0.66103
C         -1.53205        2.27433       -0.51679
H         -2.60688        2.35955       -0.68249
H         -1.08268        3.26573       -0.45697
H         -1.06282        1.71209       -1.32476
H         -1.65887        2.00243        1.55158
N         -1.95631       -1.09887        0.24846
H         -1.23449       -1.12579       -0.47594
C         -3.24818       -1.55745       -0.26758
H         -3.21776       -2.57413       -0.67733
H         -3.99709       -1.52863        0.52833
H         -3.57807       -0.88261       -1.06200
H         -1.61634       -1.71680        0.98002
