33
1sa2tma_01.log	Energy: -658297.1294936
S         -0.00339       -1.11149       -0.00140
O          1.00844       -1.84013       -0.74918
O         -1.01327       -1.84332        0.74621
O          0.71172       -0.14236        1.00890
O         -0.71796       -0.13791       -1.00312
H          1.65538        0.18157        0.60819
H         -1.66974        0.18861       -0.59820
N         -2.95192        0.61990       -0.05638
C         -3.88360       -0.50052       -0.22731
H         -4.00360       -0.70986       -1.29293
H         -3.46133       -1.38337        0.25639
H         -4.86747       -0.27037        0.20698
C         -2.73431        0.91275        1.36545
H         -2.36623        0.01184        1.85931
H         -1.97535        1.69293        1.46100
H         -3.66365        1.24978        1.84731
C         -3.39510        1.80904       -0.78478
H         -2.64542        2.59752       -0.68114
H         -3.50314        1.56921       -1.84527
H         -4.35755        2.18076       -0.40278
N          2.95631        0.61779        0.05699
C          2.73717        0.90918       -1.36441
H          2.36669        0.00848       -1.85699
H          1.97941        1.69062       -1.46019
H          3.66620        1.24421       -1.84898
C          3.40266        1.80689        0.78245
H          2.65386        2.59647        0.67986
H          3.51337        1.56869        1.84311
H          4.36480        2.17787        0.39802
C          3.88693       -0.50280        0.22734
H          4.00817       -0.71221        1.29290
H          3.46406       -1.38583       -0.25560
H          4.87119       -0.27436       -0.20779
