21
1sa2ma_08.log	Energy: -559654.5422514
S          1.49993       -0.11467       -0.10839
O          2.91311       -0.29862        0.17313
O          0.79484       -1.18930       -0.81160
O          0.75923       -0.11975        1.39073
O          1.14958        1.23101       -0.64691
H          1.45530        0.04614        2.03890
H         -0.42768        1.41457       -0.79741
N         -1.48772        1.44850       -0.68886
H         -1.88912        2.01887       -1.42894
C         -1.81374        1.96804        0.65728
H         -2.88787        1.89757        0.83374
H         -1.27092        1.35847        1.38035
H         -1.48561        3.00389        0.74571
H         -1.83345        0.43060       -0.78481
N         -2.09221       -1.23247       -0.71456
H         -2.76163       -1.67261       -1.33749
C         -2.28981       -1.68397        0.67059
H         -2.29461       -2.77518        0.77133
H         -1.47023       -1.29447        1.27919
H         -3.23551       -1.29416        1.05921
H         -1.15070       -1.50233       -1.01161
