31
1sa2eda_97.log	Energy: -678440.6970650
S         -0.12422       -0.72931        0.00379
O         -0.66161       -1.08546        1.31556
O         -0.01520        0.74283       -0.21481
O          1.18479       -1.38692       -0.32061
O         -1.10753       -1.29471       -1.10447
H         -2.08323       -1.15087       -0.81712
H          3.48981        1.98754        0.73930
H          2.55469        0.62334        1.39215
H          5.01536        0.22389        1.66568
H          4.27064       -0.96964        0.59792
H          5.96546        1.26058       -0.24617
H          6.03705       -0.31215       -0.68628
H          1.77728        1.27094       -0.79696
H          3.31828        0.83885       -1.43362
C          3.27105        0.92189        0.62464
C          4.54334        0.08665        0.68437
N          2.63108        0.70432       -0.69057
N          5.40326        0.44047       -0.44671
H          2.19409       -0.28390       -0.69637
H         -4.74565       -0.13791        1.27113
H         -3.02164       -0.47791        1.57957
H         -3.39116        1.94167        1.37622
H         -2.35509        1.34533        0.07681
H         -5.16375        2.13248       -0.19045
H         -3.87678        2.57892       -1.09644
H         -4.03337       -1.87107       -0.19693
H         -4.17139       -0.50180       -1.10562
C         -3.73410       -0.10883        0.83750
C         -3.37779        1.32549        0.46572
N         -3.63664       -0.95195       -0.36375
N         -4.28509        1.80909       -0.58071
