27
1sa2dma_18.log	Energy: -608972.8206399
S         -2.14799       -0.30948       -0.19704
O         -2.11912        1.12498        0.11236
O         -3.20277       -0.79689       -1.07393
O         -0.77498       -0.78497       -0.56171
O         -2.43287       -1.03140        1.25536
H          0.18091        0.44606       -0.22187
H         -3.13210       -1.67951        1.10420
N          0.88765        1.19122        0.05264
C          0.72415        1.45740        1.49608
C          0.68906        2.37639       -0.80264
H          1.80724        0.72196       -0.13282
H         -0.28584        1.83329        1.66330
H          0.84841        0.51796        2.03593
H          1.47162        2.18224        1.82556
H         -0.33744        2.72154       -0.67197
H          1.40107        3.15638       -0.52443
H          0.84206        2.08837       -1.84335
N          2.95497       -0.67878       -0.45286
C          2.38069       -1.72107        0.40515
C          4.39536       -0.52018       -0.26643
H          2.76976       -0.92675       -1.42091
H          2.52356       -1.43803        1.45338
H          1.30795       -1.80822        0.21011
H          2.85513       -2.70133        0.25427
H          4.58899       -0.15746        0.74780
H          4.94968       -1.46068       -0.40246
H          4.78076        0.21996       -0.97212
