21
1sa2ma_05.log	Energy: -559653.6166831
S          0.00000        0.89893        0.00000
O          1.17463        1.61598        0.45908
O         -1.17461        1.61599       -0.45909
O          0.42550       -0.07819       -1.16271
O         -0.42551       -0.07818        1.16271
H          1.42052       -0.36055       -1.01752
H         -1.42053       -0.36053        1.01752
N          2.90070       -0.62855       -0.58381
H          3.53356       -0.97842       -1.29585
C          2.90746       -1.48871        0.60878
H          3.89691       -1.57802        1.07024
H          2.21064       -1.07363        1.33994
H          2.55425       -2.48476        0.33272
H          3.19646        0.31357       -0.33793
N         -2.90070       -0.62854        0.58380
H         -3.53357       -0.97839        1.29584
C         -2.90747       -1.48871       -0.60877
H         -3.89691       -1.57802       -1.07024
H         -2.21064       -1.07366       -1.33994
H         -2.55427       -2.48476       -0.33270
H         -3.19646        0.31358        0.33791
