21
1sa2ma_18.log	Energy: -559649.3786040
S         -0.13893       -0.84260        0.01288
O         -0.19179        0.04494       -1.19891
O         -0.24803        0.02539        1.23329
O         -1.10358       -1.93321       -0.01644
O          1.29407       -1.50643        0.03702
H          2.01821       -0.79509       -0.00686
N         -2.04271        1.51123       -0.00936
H         -1.41513        1.18435       -0.79285
H         -1.44545        1.17532        0.79427
C         -3.32982        0.77440       -0.03746
H         -3.91421        1.02873        0.84652
H         -3.87796        1.03289       -0.94318
H         -3.09588       -0.29191       -0.03539
H         -2.15479        2.52107       -0.00626
N          3.19285        0.37631       -0.09344
H          3.90103        0.21955        0.61671
C          2.56006        1.69137        0.07632
H          3.27053        2.52582        0.03064
H          1.80512        1.81056       -0.70369
H          2.04171        1.70682        1.03725
H          3.65193        0.31058       -0.99651
