27
1sa2dma_19.log	Energy: -608973.9317377
S          0.01537       -0.46552        0.05249
O         -0.91429       -1.25869        0.85258
O          0.59298        0.70774        0.74100
O          1.12191       -1.28567       -0.56578
O         -0.77570        0.06900       -1.22329
H         -1.73148        0.32234       -0.94479
N          3.33811       -0.09721       -0.29013
C          3.21047        1.22909       -0.93570
C          3.61364       -0.02554        1.16248
H          2.36611       -0.64265       -0.43063
H          4.13241        1.80068       -0.80598
H          3.00124        1.08244       -1.99576
H          2.36411        1.73451       -0.46869
H          4.54594        0.51452        1.34349
H          2.76708        0.48199        1.62694
H          3.68281       -1.04002        1.55652
H          4.06132       -0.64226       -0.75569
N         -3.23286        0.64420       -0.41558
C         -3.10232        1.32901        0.87398
C         -3.92547       -0.64216       -0.29928
H         -3.73213        1.24240       -1.06696
H         -2.49032        0.70916        1.53370
H         -2.58916        2.28250        0.73004
H         -4.07623        1.50860        1.35224
H         -3.30999       -1.30576        0.31297
H         -4.92037       -0.54113        0.15855
H         -4.03111       -1.08928       -1.29064
