24
2eda_01.log	Energy: -239071.8467122
H         -0.88320        0.38228        1.24159
H         -2.56607        0.85502        1.44488
H         -2.38087       -1.56689        1.04568
H         -3.23627       -0.80040       -0.30506
H         -0.38774       -1.54795       -0.33836
H         -1.59867       -2.17949       -1.26697
H         -1.36105        1.01629       -1.18130
H         -2.54807        1.94524       -0.55561
C         -1.83766        0.49135        0.71266
C         -2.25978       -0.88288        0.18914
N         -1.66391        1.49896       -0.33682
N         -1.28105       -1.34168       -0.79408
H          3.38264       -0.31671        0.26739
H          2.66375       -1.23811       -1.06560
H          2.36096        1.16896       -1.43911
H          0.80659        0.35643       -1.21399
H          2.06837        2.20353        0.63429
H          0.47349        2.00242        0.24288
H          2.01269       -2.11147        1.12562
H          1.27326       -0.68097        1.44277
C          2.42792       -0.59800       -0.20776
C          1.72242        0.66346       -0.69974
N          1.53686       -1.32414        0.69866
N          1.35136        1.51948        0.42583
