24
2eda_06.log	Energy: -239068.0121067
H         -0.84892       -1.05882       -0.61101
H         -2.39906       -1.72900       -1.08662
H         -2.14262        0.55721       -1.95228
H         -3.46715        0.50142       -0.77634
H         -0.75414        1.49011       -0.17482
H         -2.16302        2.34344       -0.17150
H         -2.00339       -0.46770        1.50648
H         -3.19462       -1.48960        1.07522
C         -1.93066       -0.97380       -0.44617
C         -2.37734        0.42489       -0.88232
N         -2.20591       -1.29559        0.94990
N         -1.76283        1.42591       -0.01633
H          2.17648        0.03613        1.74724
H          0.51569       -0.29267        1.23595
H          1.99971       -1.87617        0.16100
H          1.33576       -0.78352       -1.06470
H          4.04292       -0.60860        0.04083
H          3.60392       -0.82468       -1.51911
H          1.18937        2.10255        1.10743
H          2.17198        1.68748       -0.14028
C          1.48544        0.08099        0.88828
C          2.01252       -0.83910       -0.20525
N          1.32182        1.43294        0.35685
N          3.33225       -0.38405       -0.64824
