37
2sa1dma1tma_34.log	Energy: -1073011.7950665
S          0.35831        1.63411        0.08168
O          1.41886        2.33291       -0.65941
O         -0.60899        2.48333        0.78587
O         -0.43232        0.71233       -0.87777
O          1.04892        0.67292        1.07760
H          2.47060        0.41141        0.56306
S         -0.08919       -2.45382        0.09893
O          0.30347       -3.82700       -0.06886
O         -1.48527       -2.12260        0.35987
O          0.79862       -1.84920        1.26194
O          0.38561       -1.64617       -1.17142
H          0.73742       -0.83486        1.26638
H          0.05522       -0.66643       -1.11194
N          3.45757        0.22314        0.16629
C          4.27805        1.43413        0.40233
C          3.32266       -0.14069       -1.26747
H          3.83207       -0.57019        0.68541
H          3.76100        2.27007       -0.07006
H          4.34661        1.60923        1.47612
H          5.27334        1.29507       -0.02409
H          2.85432        0.70509       -1.77211
H          4.30896       -0.34981       -1.68580
H          2.67343       -1.01356       -1.34500
N         -2.99740        0.74522       -0.15468
C         -3.07971        0.49621        1.30814
H         -2.68096       -0.49911        1.50380
H         -2.46892        1.24803        1.80847
H         -4.12446        0.56623        1.62122
C         -3.43722        2.11800       -0.50348
H         -2.80928        2.82071        0.04410
H         -3.29665        2.26738       -1.57461
H         -4.49170        2.23546       -0.24217
C         -3.71498       -0.29010       -0.93609
H         -3.56709       -0.08980       -1.99816
H         -3.29518       -1.26363       -0.68361
H         -4.77979       -0.24918       -0.69422
H         -1.97017        0.68719       -0.42105
