37
2sa1dma1tma_53.log	Energy: -1072995.2490286
S         -3.83060        0.47567       -0.25855
O         -5.24324        0.73678       -0.35022
O         -3.20056       -0.52682       -1.09764
O         -3.03881        1.83470       -0.61818
O         -3.48007        0.23719        1.23911
H         -3.53179        2.58215       -0.25086
H         -2.55788       -0.20165        1.36292
S         -0.22385       -1.12660        0.54081
O          0.88584       -1.98714        0.99924
O         -1.25306       -0.90918        1.58358
O          0.24532        0.11722       -0.08887
O         -0.91327       -2.00946       -0.61302
H          3.11607       -0.06231       -0.19101
H         -1.73636       -1.55542       -0.89711
N          3.03037       -1.11188       -0.39564
C          4.28195       -1.79353       -0.02299
C          2.63690       -1.28936       -1.80905
H          2.24311       -1.46734        0.20435
H          5.10681       -1.40150       -0.62179
H          4.47908       -1.61539        1.03483
H          4.18043       -2.86657       -0.19428
H          3.41869       -0.88948       -2.45852
H          2.48793       -2.35076       -2.01426
H          1.69959       -0.75476       -1.96498
N          3.26833        1.60335        0.12068
C          4.66337        2.03191        0.13926
H          5.21113        1.47845        0.90797
H          5.12704        1.83250       -0.83175
H          4.76205        3.10866        0.35323
C          2.51318        2.29542       -0.92683
H          2.98127        2.11089       -1.89875
H          1.49162        1.91005       -0.94346
H          2.48845        3.38353       -0.75495
C          2.63447        1.79899        1.42749
H          1.60497        1.43857        1.37858
H          3.17516        1.22720        2.18777
H          2.63658        2.86084        1.72138
