25
2sa1a1ma_61.log	Energy: -974353.0330900
S         -2.99233        0.41603        0.11893
O         -4.35363        0.85547       -0.02926
O         -1.89198        1.36097        0.04188
O         -2.81645       -0.25393        1.57252
O         -2.76135       -0.77436       -0.86030
H         -3.59190       -0.80160        1.76173
H         -1.76809       -0.97419       -0.99800
S          0.85348       -0.75227       -0.48671
O          2.17033       -0.99666       -1.07536
O         -0.29287       -1.21463       -1.29434
O          0.76663       -1.17916        0.93117
O          0.75649        0.87034       -0.46626
H          2.39057       -1.22755        1.49846
H         -0.16948        1.13188       -0.26042
N          3.49918        1.50107        0.62370
H          2.50327        1.61327        0.42296
C          4.24490        1.56955       -0.64501
H          4.13683        2.53576       -1.14850
H          5.30705        1.39033       -0.45667
H          3.86330        0.78841       -1.30593
H          3.77136        2.25920        1.24228
N          3.42817       -1.08387        1.42890
H          3.92274       -1.39276        2.25984
H          3.56193       -0.01574        1.20684
H          3.71583       -1.60946        0.60337
