30
2sa1a1eda_18b.log	Energy: -1033767.4536156
S          2.47251        0.76676       -0.13869
O          1.60773        0.54963        1.07674
O          1.98252        1.93039       -0.89940
O          3.89444        0.68471        0.12253
O          2.17474       -0.55941       -1.03946
H          1.20952       -0.62864       -1.21474
S         -1.30278       -1.65909       -0.22967
O         -0.59733       -0.74302       -1.17531
O         -0.40642       -2.72745        0.25780
O         -2.07287       -0.95064        0.78184
O         -2.42831       -2.41306       -1.11612
H         -1.98479       -2.99518       -1.74847
H         -1.63039        3.72262       -0.15325
H         -1.86351        2.75807       -1.63251
H         -3.90860        2.79033       -0.10601
H         -3.29838        1.16659       -0.43369
H         -3.50170        2.37618        2.08853
H         -2.88446        0.88719        1.71799
H         -0.65391        1.76579        0.86367
H         -0.73586        0.91802       -0.55095
C         -1.80956        2.71782       -0.54254
C         -3.07112        2.10955        0.07551
N         -0.65838        1.87566       -0.15660
N         -2.85013        1.87690        1.49944
H          0.27926        2.21259       -0.45469
N          1.90024       -2.01749        1.54123
H          2.03024       -2.37423        2.48316
H          1.80513       -0.94742        1.52046
H          2.69862       -2.25502        0.95389
H          1.02921       -2.39821        1.10507
