18
2sa1a_10.log	Energy: -914197.3826920
S          2.02427       -0.35588       -0.05911
O          2.23373        0.75624        0.90916
O          0.98698        0.10536       -1.05525
O          3.20127       -0.94874       -0.63270
O          1.30949       -1.54204        0.76991
H          0.51321       -1.19794        1.20923
S         -2.14543       -0.09125       -0.05995
O         -3.52592       -0.46508       -0.18239
O         -1.77503        1.29192        0.19919
O         -1.51207       -0.88057        1.22239
O         -1.34893       -0.66771       -1.25032
H         -1.93182       -1.75244        1.28379
H         -0.33062       -0.40022       -1.20660
N          0.64730        2.67606        0.07305
H          0.87959        2.79353       -0.91143
H          1.35269        1.98387        0.49219
H          0.65387        3.57209        0.55281
H         -0.28551        2.22770        0.13362
