25
2sa1a1ma_14.log	Energy: -974369.5688180
S          2.65874       -0.38270       -0.15237
O          1.52724        0.00558       -1.02418
O          2.50148       -1.76839        0.34923
O          3.99181       -0.03458       -0.59795
O          2.34342        0.58514        1.16208
H          3.09736        0.52831        1.76386
S         -2.59147       -0.14856       -0.09142
O         -2.60429        1.15862       -0.77240
O         -2.51816       -1.30989       -0.98258
O         -1.59477       -0.20430        1.01239
O         -3.99665       -0.25349        0.71471
H         -4.71765       -0.20899        0.07159
N         -0.05711        1.95773       -0.00781
H         -0.23717        1.52169        0.90095
H          0.55246        1.26971       -0.51049
C          0.59061        3.27957        0.10023
H          0.73547        3.68504       -0.90053
H         -0.04120        3.95011        0.68236
H          1.55706        3.15106        0.58632
H         -0.98168        1.96744       -0.47496
N         -0.12091       -2.38751        0.21468
H         -0.48117       -2.31394       -0.73956
H         -0.37014       -3.29391        0.60041
H          0.92224       -2.22844        0.24524
H         -0.61001       -1.62645        0.73561
