27
2sa1tma_36.log	Energy: -988152.2674363
S         -0.21340        2.20963        0.07093
O         -0.57020        1.36307        1.19617
O          0.69217        3.31040        0.22545
O          0.31398        1.32698       -1.11631
O         -1.62713        2.74374       -0.46635
H         -0.12160        0.43370       -1.11915
H         -1.48165        3.47307       -1.08759
S         -1.83505       -1.60790       -0.03132
O         -0.88422       -1.05080       -0.97897
O         -2.09096       -3.01660        0.02443
O         -1.47376       -1.13222        1.42240
O         -3.19341       -0.81610       -0.35010
H         -1.14348       -0.19487        1.40867
H         -3.93422       -1.24738        0.10204
N          3.21627       -1.35777        0.12222
C          2.39532       -0.57087        1.02181
H          1.35868       -0.91640        0.97166
H          2.74319       -0.69666        2.05134
H          2.41651        0.51040        0.78211
C          4.60907       -0.96057        0.20117
H          4.97184       -1.07888        1.22666
H          5.21488       -1.59894       -0.44884
H          4.76903        0.09315       -0.10225
C          2.72301       -1.28552       -1.24112
H          3.32621       -1.93123       -1.88632
H          1.68813       -1.63772       -1.28024
H          2.75759       -0.25745       -1.65229
