33
2sa1ma1eda_92.log	Energy: -1058419.3226119
S         -1.12011       -0.69819        0.81681
O         -1.75360        0.61257        1.10749
O         -0.72744       -0.77039       -0.62349
O          0.01766       -0.98018        1.71638
O         -2.17587       -1.82211        1.08396
H         -3.02998       -1.63817        0.51729
S          2.72567       -1.00328       -0.33050
O          4.01916       -1.41699       -0.78871
O          2.51920        0.40662        0.02167
O          1.67117       -1.39482       -1.43432
O          2.33263       -1.88661        0.91165
H          0.73459       -1.17237       -1.13971
H          1.44485       -1.59572        1.28080
N         -4.22549       -1.25679       -0.42409
H         -5.09481       -1.72448       -0.18650
C         -3.84172       -1.52168       -1.82038
H         -4.57853       -1.15897       -2.54537
H         -2.87564       -1.04925       -2.00842
H         -3.71399       -2.59767       -1.95311
H         -4.36817       -0.26193       -0.27172
H          1.20026        2.69676       -1.17651
H         -0.23319        1.64742       -1.17762
H         -0.84716        4.03653       -1.72658
H         -1.61426        3.47572       -0.23611
H          0.69139        5.27624       -0.38593
H         -0.69794        5.45615        0.45844
H          1.28439        1.41976        0.73219
H          0.76699        2.96759        1.23383
C          0.24001        2.50296       -0.69269
C         -0.65255        3.73679       -0.68896
N          0.51913        2.11988        0.71467
N         -0.02464        4.77513        0.12949
H         -0.33850        1.68526        1.11868
