39
2sa1eda1tma_60.log	Energy: -1107744.5813304
S          2.64256        1.18935        0.20639
O          1.99368        2.36499        0.78590
O          3.25431        0.25658        1.15510
O          1.78036        0.49408       -0.80049
O          3.84509        1.74251       -0.75010
H          4.41022        2.31325       -0.21204
S         -2.57532       -1.31693        0.03658
O         -3.32376       -0.32153       -0.73687
O         -2.44346       -2.63712       -0.58267
O         -1.28877       -0.77930        0.55798
O         -3.40647       -1.54954        1.42961
H         -4.20401       -2.04955        1.21078
H         -1.21903        3.12389       -1.76319
H         -2.07734        1.55675       -1.86003
H         -3.58831        3.34209       -0.99519
H         -3.32707        2.04378        0.16892
H         -2.15780        4.73108        0.30578
H         -2.88475        3.86038        1.48788
H          0.18532        1.46157       -0.76643
H         -0.45193        2.39823        0.44762
C         -1.70792        2.33211       -1.18819
C         -2.84143        2.88529       -0.33281
N         -0.69133        1.73168       -0.29500
N         -2.29149        3.79470        0.67061
H         -1.03477        0.84256        0.14078
N          1.66732       -2.19511       -0.18155
C          0.77784       -2.97185       -1.08339
H         -0.26575       -2.74545       -0.86040
H          1.00933       -2.70514       -2.11544
H          0.96654       -4.03591       -0.92411
C          3.10059       -2.48313       -0.44585
H          3.31320       -2.26231       -1.49237
H          3.70353       -1.84010        0.19505
H          3.29094       -3.53818       -0.23785
C          1.32196       -2.40090        1.25208
H          1.97570       -1.76444        1.84896
H          0.28008       -2.11090        1.39114
H          1.47346       -3.45488        1.49571
H          1.54100       -1.17866       -0.39021
