34
2sa1ma1tma_19.log	Energy: -1048352.8412184
S          1.71256        1.45635       -0.28349
O          0.45986        2.04426       -0.76520
O          1.85438        1.35097        1.17027
O          2.05098        0.17766       -0.98078
O          2.90059        2.48480       -0.70194
H          2.85119        2.62665       -1.65714
S         -1.00454       -1.77948       -0.58531
O         -1.62737       -3.08430       -0.64572
O         -1.69324       -0.67459       -1.28696
O         -0.65006       -1.32814        0.80776
O          0.42237       -1.96929       -1.32611
H          0.92478       -1.41989        1.19404
H          0.85610       -1.09153       -1.43227
N          1.98019       -1.49784        1.24058
H          2.29504       -1.02242        0.37471
C          2.39429       -2.91418        1.30367
H          3.48185       -2.98628        1.29146
H          1.99817       -3.36557        2.21291
H          1.97478       -3.41923        0.43367
H          2.31198       -0.92106        2.01241
N         -2.26571        1.31523        0.46335
C         -2.57555        2.51781       -0.34836
H         -1.63513        3.00335       -0.60479
H         -3.08485        2.19761       -1.25766
H         -3.21740        3.18292        0.23380
C         -3.48741        0.54230        0.80160
H         -3.98249        0.24911       -0.12323
H         -3.18466       -0.35338        1.34425
H         -4.14232        1.16410        1.41602
C         -1.48364        1.64756        1.68088
H         -1.20920        0.71274        2.16735
H         -0.58078        2.17756        1.38479
H         -2.10584        2.26323        2.33508
H         -1.70707        0.67856       -0.14948
