39
2sa1eda1tma_80.log	Energy: -1107744.5340977
S          1.06562        1.47687       -0.48624
O          0.06060        2.53083       -0.71620
O          0.80174        0.70118        0.74139
O          0.98491        0.44033       -1.70590
O          2.47277        1.94870       -0.56708
H          3.29470        0.73101        0.05860
S         -1.40385       -1.99836       -0.18361
O         -2.15548       -3.19710       -0.53036
O         -1.88310       -1.27677        1.01215
O          0.09852       -2.55703        0.21623
O         -1.14388       -1.06643       -1.30652
H          0.01254       -3.51830        0.24871
H          0.18843       -0.14786       -1.58399
H         -3.38453        2.28620       -0.92565
H         -2.83567        0.62719       -1.27379
H         -5.25961        0.64677       -0.60556
H         -4.25856       -0.25737        0.53941
H         -5.39626        2.40036        0.98560
H         -5.38395        1.09923        1.97774
H         -1.33978        1.94691        0.17838
H         -2.57453        1.88292        1.35375
C         -3.21524        1.29406       -0.49808
C         -4.47616        0.74388        0.15651
N         -2.16227        1.42084        0.53855
N         -4.84488        1.60342        1.28464
H         -1.84752        0.46587        0.82471
N          3.81081       -0.10429        0.47621
C          5.23157        0.03923        0.09018
H          5.30337        0.03254       -0.99778
H          5.60982        0.98810        0.47212
H          5.80794       -0.78932        0.50830
C          3.61420       -0.03998        1.94562
H          4.05060        0.88731        2.31865
H          2.54066       -0.04157        2.13529
H          4.10091       -0.90064        2.41078
C          3.19843       -1.33216       -0.09964
H          2.15387       -1.38869        0.21025
H          3.24204       -1.26388       -1.18662
H          3.75596       -2.20264        0.25562
