36
2sa1dma1eda_241.log	Energy: -1083056.8694387
S         -3.11708       -0.45238        0.54324
O         -3.98399        0.70091        0.55351
O         -1.95572       -0.53475        1.40969
O         -4.01150       -1.71968        0.98345
O         -2.75029       -0.81436       -0.92786
H         -4.91821       -1.57403        0.67899
H         -1.76410       -1.02665       -1.03920
S          0.95043       -0.87760       -0.71422
O         -0.29329       -1.48560       -1.21822
O          1.37043        0.35705       -1.38907
O          0.68815       -0.49382        0.82791
O          2.06943       -1.85511       -0.63076
H         -0.27888       -0.40757        1.00436
H          3.44281       -1.19191       -0.61482
N         -1.17253        1.85112       -0.56032
C         -1.07163        2.68080        0.62575
C         -2.07073        2.40130       -1.56124
H         -0.25358        1.69900       -0.96503
H         -2.04119        2.70416        1.13490
H         -0.34109        2.24807        1.31607
H         -0.77607        3.72469        0.41238
H         -3.08969        2.41657       -1.16160
H         -1.80577        3.42884       -1.86986
H         -2.06699        1.75953       -2.44633
H          5.26722        1.20402       -0.53291
H          3.56474        1.12357       -1.10372
H          3.77736        2.07285        1.24446
H          2.76202        0.63594        1.14203
H          5.41784        0.78739        2.32577
H          4.11288       -0.08912        2.78424
H          4.95925       -0.97390       -1.36747
H          4.87171       -1.06527        0.31041
C          4.28340        0.75377       -0.37200
C          3.79144        0.99372        1.05493
N          4.41544       -0.71979       -0.54682
N          4.63787        0.23850        1.98272
