34
2sa1ma1tma_01.log	Energy: -1048358.2948530
S         -0.49361        2.19558       -0.00821
O          0.20366        1.29677        0.97248
O         -1.94199        1.87350       -0.05943
O         -0.15827        3.59431        0.12463
O          0.10409        1.75229       -1.44745
H          0.05524        0.76991       -1.49367
S         -0.27972       -1.91892       -0.20731
O          0.37788       -0.88899       -1.08447
O         -1.51861       -2.44543       -0.80741
O          0.68144       -2.90472        0.26980
O         -0.80215       -1.08285        1.06723
H         -0.40500       -0.15527        1.08098
N         -3.31690       -0.39453       -0.41539
H         -2.70301       -1.20511       -0.66906
H         -2.70691        0.46349       -0.32487
C         -3.99768       -0.65418        0.87538
H         -4.56618        0.22908        1.16526
H         -4.65532       -1.51748        0.77552
H         -3.22456       -0.86075        1.61376
H         -3.98051       -0.23128       -1.16940
N          2.73063       -0.15109        0.11189
C          2.68398       -0.45007        1.56824
H          2.05871        0.30151        2.04837
H          2.24761       -1.44151        1.69908
H          3.70108       -0.41996        1.96523
C          3.51080       -1.17549       -0.62849
H          3.04328       -2.14611       -0.45689
H          3.47660       -0.93907       -1.69203
H          4.54221       -1.16736       -0.27002
C          3.19727        1.23264       -0.15753
H          3.11176        1.43008       -1.22593
H          2.55469        1.92281        0.38788
H          4.23609        1.32475        0.16698
H          1.75677       -0.24135       -0.25693
