24
2sa1dma_06.log	Energy: -963526.0519433
S          1.89035       -0.78418        0.04789
O          2.61671        0.26786        0.73197
O          1.11331       -1.73436        0.87216
O          1.01483       -0.22149       -1.04548
O          3.01084       -1.67148       -0.69122
H          2.64542       -2.55003       -0.86653
S         -2.19199       -0.56778       -0.02668
O         -2.30767        0.84892       -0.37726
O         -3.39123       -1.31549        0.20971
O         -1.35731       -1.32457       -1.12827
O         -1.23032       -0.59513        1.24020
H         -0.44347       -0.91955       -1.22788
H         -0.44312       -1.20739        1.15003
N          0.07873        2.22768       -0.11933
C          0.34369        2.42536        1.32738
C          0.39500        3.39644       -0.96735
H          0.61146        1.40097       -0.46014
H         -0.21811        3.29455        1.67206
H          0.01379        1.53229        1.85697
H          1.41368        2.56504        1.47559
H         -0.21366        4.24523       -0.65337
H          1.45341        3.63442       -0.85729
H          0.17839        3.14863       -2.00630
H         -0.90818        1.92862       -0.24192
