31
2sa1a1tma_17.log	Energy: -1023687.7987150
S          2.68727       -0.41736       -0.00558
O          3.16646        0.87824        0.47979
O          2.78107       -1.52708        0.95442
O          1.34628       -0.34420       -0.64881
O          3.63540       -0.81601       -1.27150
H          4.55317       -0.81119       -0.96769
S         -2.46364       -0.75358       -0.17537
O         -1.93894        0.12953       -1.22016
O         -2.51830       -2.18547       -0.49395
O         -1.81367       -0.49828        1.14171
O         -4.00803       -0.25819       -0.01308
H         -4.49743       -0.94979        0.45174
N          0.11716       -2.42463        0.53379
H          0.50515       -1.72136       -0.14508
H         -0.48003       -1.87172        1.17071
H         -0.48582       -3.09763        0.06129
H          0.92373       -2.83015        1.00904
N         -0.33103        2.08379        0.06865
C          0.60679        2.73185       -0.88606
H          1.56717        2.22191       -0.82732
H          0.19041        2.63930       -1.88916
H          0.71344        3.78335       -0.61145
C         -1.66187        2.74551        0.07019
H         -2.08244        2.69389       -0.93241
H         -2.31317        2.20732        0.75821
H         -1.53236        3.78131        0.39059
C          0.23156        2.01161        1.44419
H         -0.42859        1.38260        2.04092
H          1.23432        1.58810        1.39280
H          0.27647        3.02427        1.85109
H         -0.48614        1.11852       -0.27243
