25
2sa1a1ma_18.log	Energy: -974371.9005616
S         -2.12395        0.05991        0.28802
O         -3.52875       -0.10104        0.56039
O         -1.21224       -0.88798        1.01969
O         -1.74955        0.02577       -1.16414
O         -1.72375        1.52002        0.81349
H         -0.87601        1.21857       -1.80189
H         -0.73825        1.60760        0.84237
S          1.91105        0.61323        0.34865
O          0.95102        1.73525        0.52821
O          3.29306        0.88372        0.65109
O          1.44199       -0.53572        1.37428
O          1.69341        0.01411       -1.02646
H          0.45392       -0.55690        1.42219
H          0.80241       -1.42988       -1.07047
N          0.19314       -2.25869       -0.86350
H         -0.48121       -1.89377       -0.14877
C          0.99480       -3.38735       -0.33787
H          0.33164       -4.20435       -0.05508
H          1.70114       -3.71901       -1.09827
H          1.53817       -3.02693        0.53519
H         -0.34035       -2.49762       -1.69659
N         -0.04780        1.81543       -2.09619
H          0.77474        1.18544       -1.95581
H          0.06428        2.57384       -1.42197
H         -0.13186        2.16662       -3.04505
