27
2sa1tma_23.log	Energy: -988180.3296849
S          1.62331       -1.50050       -0.15424
O          2.13734       -2.76851       -0.62796
O          0.39053       -1.59115        0.67861
O          2.73635       -0.90533        0.91296
O          1.54643       -0.40171       -1.13304
H          3.03558       -1.63653        1.46961
H          1.04918        1.10106       -0.54616
S         -2.56963       -0.14124       -0.14297
O         -3.91208       -0.20594       -0.65783
O         -1.61614        0.82611       -0.64568
O         -2.63874        0.20709        1.44130
O         -1.97853       -1.57778       -0.16067
H         -3.34016       -0.32077        1.84893
H         -0.99198       -1.59661        0.13706
N          1.17475        2.03174       -0.07387
C          0.45377        3.07190       -0.84857
H          0.84223        3.07910       -1.86731
H         -0.60599        2.82422       -0.86111
H          0.62200        4.04267       -0.37670
C          0.64541        1.89497        1.30941
H         -0.42184        1.68963        1.25242
H          1.15432        1.05879        1.78948
H          0.83520        2.82492        1.85025
C          2.64271        2.26326       -0.07087
H          3.12111        1.43188        0.44651
H          2.99398        2.29345       -1.10220
H          2.85177        3.21082        0.43032
