37
2sa1dma1tma_56.log	Energy: -1072995.0819667
S          0.22146       -2.09909        0.03757
O         -0.61977       -3.26701        0.21082
O          1.66968       -2.36561       -0.15561
O         -0.28147       -1.12544       -0.97028
O          0.10873       -1.31802        1.46109
H         -1.87728       -0.86124       -0.67418
H          0.74829       -0.57500        1.44107
S          2.90209        0.85815        0.00492
O          1.80720        0.80282        0.96185
O          4.05678        1.67711        0.26433
O          3.38042       -0.56386       -0.37720
O          2.18767        1.39561       -1.34133
H          2.63459       -1.29467       -0.31593
H          2.86846        1.56225       -2.00882
N         -2.83902       -0.55629       -0.36962
C         -3.20192       -1.28581        0.86507
C         -3.78950       -0.73128       -1.48139
H         -2.70784        0.48267       -0.14809
H         -3.23910       -2.35562        0.65652
H         -2.42671       -1.10707        1.61082
H         -4.16951       -0.92899        1.22482
H         -3.87228       -1.79166       -1.72524
H         -4.76843       -0.34224       -1.19361
H         -3.41849       -0.18865       -2.35170
N         -2.13972        2.06081        0.18322
C         -1.08597        2.22583       -0.82412
H         -0.39731        1.37849       -0.78684
H         -1.53847        2.26610       -1.81974
H         -0.51300        3.15125       -0.66173
C         -3.12520        3.13432        0.10058
H         -3.58313        3.14148       -0.89274
H         -3.91040        2.97580        0.84542
H         -2.67069        4.12223        0.27957
C         -1.55546        1.98047        1.52370
H         -2.34580        1.81638        2.26220
H         -0.85336        1.14567        1.56372
H         -1.01086        2.90022        1.78703
