37
2sa1dma1tma_16.log	Energy: -1073016.1147977
S          1.15122        1.87693       -0.48793
O          1.73792        0.68618       -1.17585
O         -0.18387        2.20533       -0.99778
O          1.28544        1.81925        0.96641
O          2.12233        3.11617       -0.90270
H          2.04767        3.24801       -1.85759
S         -0.78626       -1.96090       -0.59116
O         -0.50341       -3.34326       -0.24326
O         -2.11313       -1.65479       -1.12745
O         -0.45161       -0.99556        0.53359
O          0.31635       -1.60290       -1.72264
H          1.19900       -1.13038        0.94864
H          0.60828       -0.66570       -1.65017
N          2.24565       -1.12478        0.87428
C          2.71216       -2.45405        0.41622
C          2.85020       -0.65615        2.13848
H          2.38493       -0.42162        0.12398
H          2.44299       -3.20108        1.16312
H          2.21234       -2.68960       -0.52301
H          3.79464       -2.42407        0.28141
H          2.60093       -1.36158        2.93262
H          3.93358       -0.60146        2.01940
H          2.44816        0.33308        2.35438
N         -2.47276        0.84010        0.70189
C         -3.33979       -0.11884        1.43208
H         -3.53891       -0.96423        0.77337
H         -2.80868       -0.46463        2.31889
H         -4.26673        0.38503        1.71472
C         -2.07127        1.98691        1.55451
H         -1.52292        1.60591        2.41602
H         -1.42056        2.63578        0.97089
H         -2.97037        2.51644        1.87809
C         -3.10638        1.28362       -0.56844
H         -2.40694        1.93875       -1.08409
H         -3.29756        0.39747       -1.17247
H         -4.03470        1.80779       -0.32845
H         -1.60444        0.30025        0.47279
