30
2sa1a1eda_176.log	Energy: -1033751.2595917
S          1.76198        0.03420       -0.34475
O          1.43936        0.91377        0.78851
O          1.30923       -1.37618       -0.10815
O          1.29998        0.57348       -1.64168
O          3.33350       -0.06534       -0.48179
H          3.67936       -0.80440        0.12486
S         -2.19116       -1.49135       -0.13306
O         -3.36680       -2.30481       -0.31368
O         -2.06946       -0.20836       -0.79400
O         -2.05375       -1.13093        1.44006
O         -0.95003       -2.38282       -0.40377
H         -2.27319       -1.92285        1.95115
H         -0.04153       -1.88482       -0.31347
H          0.90031        3.05538       -0.21983
H         -0.14705        4.23369       -1.04552
H         -0.23338        4.22321        1.54054
H         -1.81062        4.09916        0.74628
H         -0.33292        1.75487        1.75059
H         -1.80916        2.32175        2.27435
H         -0.02755        1.55606       -1.50988
H         -1.27683        1.63982       -0.41090
C         -0.13315        3.34676       -0.41036
C         -0.86472        3.57314        0.91903
N         -0.76396        2.20169       -1.12218
N         -1.16938        2.27445        1.49361
H         -1.42203        2.47017       -1.84876
N          3.96989       -2.15201        1.05313
H          3.04801       -2.57207        0.95257
H          4.14382       -1.99029        2.03912
H          4.66464       -2.80403        0.70600
