18
2sa1a_13.log	Energy: -914193.3004354
S          1.57517       -0.36747       -0.10518
O          0.54505       -0.67946       -1.11264
O          2.79691       -1.17773       -0.19644
O          1.89454        1.09633       -0.07324
O          0.96673       -0.73282        1.32193
H          0.05068       -0.37574        1.38520
S         -2.49260        0.26761        0.09047
O         -3.66767        1.09594        0.06986
O         -1.56143        0.31875        1.20294
O         -2.93592       -1.27928        0.03557
O         -1.73848        0.47562       -1.26224
H         -3.67063       -1.37624       -0.58747
H         -0.81744        0.04653       -1.23661
N          4.44698        0.95178        0.07362
H          4.97310        1.32227       -0.71307
H          3.39944        1.25888        0.04503
H          4.32236       -0.07410       -0.01208
H          4.89462        1.19492        0.95309
