30
2sa1a1eda_41.log	Energy: -1033763.9677377
S          2.43325       -1.10596       -0.06373
O          2.28768       -2.34246       -0.82950
O          2.99279        0.04266       -0.77796
O          1.17363       -0.74721        0.66895
O          3.43085       -1.42820        1.18108
H          4.25514       -1.78143        0.81912
S         -2.95366       -0.08420        0.06931
O         -3.02228       -1.33206        0.86343
O         -2.71633        1.12655        0.85460
O         -2.05117       -0.21813       -1.09992
O         -4.41034        0.07894       -0.63174
H         -5.06131        0.24691        0.06322
H         -0.36754        3.48894       -0.15880
H         -0.47729        2.38211        1.22970
H          1.62588        3.89255        1.21725
H          1.96994        2.16589        1.31903
H          2.84997        3.88618       -0.68539
H          2.96991        2.23710       -0.68290
H         -0.84608        1.20678       -0.90240
H          0.70760        1.72180       -1.36720
C          0.10945        2.64850        0.34976
C          1.57638        2.95109        0.66293
N          0.09160        1.49300       -0.57867
N          2.33392        3.02327       -0.58633
H          0.49277        0.65649       -0.10572
N         -0.76017       -2.53197       -0.05010
H         -1.65229       -2.32234        0.45352
H         -0.48186       -3.50801       -0.00928
H         -0.91156       -2.23579       -1.01590
H          0.00232       -1.92297        0.33458
