33
2sa1ma1eda_129.log	Energy: -1058410.8415202
S         -0.79773        1.08731       -0.55329
O         -0.85810        0.64800        0.87058
O          0.62147        1.35703       -0.95493
O         -1.50746        0.16869       -1.44476
O         -1.51606        2.48174       -0.65319
H         -0.85786        3.22446       -0.34493
S          2.54949       -1.44409       -0.10674
O          3.71497       -2.23659       -0.40941
O          1.25464       -2.07136        0.07425
O          2.80418       -0.68352        1.30035
O          2.47332       -0.29010       -1.13613
H          3.73555       -0.42370        1.33862
H          1.64364        0.33798       -1.03276
N          0.32162        4.16360        0.12233
H          1.06748        3.83116       -0.48414
C          0.64219        3.88090        1.52885
H          1.56149        4.37142        1.86834
H         -0.18786        4.21137        2.15704
H          0.74582        2.80083        1.65193
H          0.20777        5.15900       -0.03880
H         -2.87604       -3.31440        1.29431
H         -2.64223       -1.91322        2.37880
H         -4.71868       -1.72044        0.92908
H         -3.57552       -0.39742        0.68170
H         -4.48239       -2.14840       -1.28171
H         -3.23483       -1.06652       -1.42687
H         -0.59538       -2.56785        1.04823
H         -1.44831       -2.12364       -0.29911
C         -2.68177       -2.24025        1.33743
C         -3.73119       -1.47158        0.52960
N         -1.36211       -1.98450        0.71622
N         -3.61172       -1.83387       -0.87778
H         -1.07632       -0.97428        0.84598
