34
2sa1ma1tma_54.log	Energy: -1048331.7126232
S          0.40692        2.19353        0.08078
O         -0.22778        3.49130       -0.02906
O          1.88658        2.19562        0.19647
O         -0.21655        1.27747        1.07198
O          0.08456        1.49365       -1.36677
H         -1.79571        1.14424        0.46584
H          0.61963        0.67420       -1.43096
S          2.51679       -1.17247       -0.10379
O          3.51804       -2.18118       -0.32783
O          1.56578       -0.83510       -1.15333
O          1.56243       -1.65743        1.10829
O          3.20512        0.09498        0.45629
H          2.11652       -1.95481        1.84426
H          2.62352        0.96139        0.37764
N         -2.57608        0.98388       -0.21801
H         -2.17866        1.28890       -1.10941
C         -3.79839        1.72686        0.14054
H         -4.56060        1.57872       -0.62509
H         -4.16774        1.35523        1.09674
H         -3.56306        2.78733        0.23064
H         -2.70102       -0.08460       -0.24061
N         -2.53889       -1.75648       -0.04176
C         -1.90610       -1.85537        1.27751
H         -0.99761       -1.24720        1.29769
H         -2.59680       -1.48706        2.04230
H         -1.63888       -2.89578        1.51893
C         -3.79122       -2.50610       -0.08761
H         -4.47837       -2.12952        0.67571
H         -4.25975       -2.38450       -1.06830
H         -3.63103       -3.58162        0.08990
C         -1.61528       -2.20397       -1.08792
H         -2.07360       -2.05885       -2.07053
H         -0.68810       -1.62831       -1.03815
H         -1.36269       -3.26951       -0.97351
