31
2sa1a1tma_45.log	Energy: -1023656.3135216
S         -2.71172        0.28105       -0.66610
O         -3.96668        0.72298       -1.22233
O         -1.52641        0.23549       -1.51741
O         -2.33039        1.13372        0.58233
O         -2.97499       -1.16881       -0.08264
H         -3.20475        1.43676        1.08182
H         -2.12040       -1.58587        0.18931
S          0.78405       -1.64935        0.23560
O          1.94659       -2.48947        0.30296
O         -0.53800       -2.17031        0.53647
O          0.94805       -0.41602        1.24384
O          0.78102       -0.96666       -1.17812
H          1.86685       -0.09919        1.21310
H         -0.08097       -0.48260       -1.33545
N         -4.57742        1.85362        1.65082
H         -4.60493        2.78687        2.04942
H         -4.94057        1.20303        2.34079
H         -5.19577        1.83208        0.84271
N          4.31121        1.64285        0.13773
C          4.19441        0.68838        1.21980
H          5.16362        0.54129        1.70418
H          3.50803        1.07470        1.98371
H          3.85284       -0.31298        0.87576
C          3.02324        1.89804       -0.48301
H          2.31562        2.27471        0.26320
H          3.12804        2.66399       -1.25620
H          2.59024        0.99593       -0.95717
C          5.29006        1.20541       -0.84304
H          5.39934        1.96837       -1.61889
H          6.26234        1.06909       -0.36084
H          5.00704        0.25305       -1.33056
