26
2sa1eda_84.log	Energy: -998251.7315871
S          2.30983        0.35969        0.09560
O          3.64406        0.87484        0.24816
O          1.39285        0.34558        1.22564
O          1.53046        1.29423       -0.98574
O          2.37436       -1.01707       -0.59837
H          2.04802        1.32133       -1.80329
H          1.52989       -1.63234       -0.42586
S         -0.91307       -1.88107       -0.05506
O          0.44007       -2.49674       -0.13164
O         -2.03474       -2.78897       -0.05572
O         -0.97167       -1.15043        1.39402
O         -0.99764       -0.76476       -1.04583
H         -0.11782       -0.69031        1.52861
H         -2.08208        0.28198       -0.95556
H         -3.53148        2.33694        0.68355
H         -2.86177        0.76933        1.22897
H         -1.34042        2.76777        1.74076
H         -0.58771        1.48949        0.79460
H         -1.24765        4.13410       -0.14012
H         -0.08703        3.07767       -0.63345
H         -3.67821        0.87346       -1.16936
H         -2.35682        1.89778       -1.41242
C         -2.71884        1.61650        0.55640
C         -1.35010        2.26885        0.76620
N         -2.74763        1.12704       -0.84776
N         -1.05857        3.16285       -0.35576
