33
2sa1ma1eda_123.log	Energy: -1058413.8425026
S          0.23998        2.02117        0.11682
O         -0.83623        1.64293        1.06595
O          1.58766        1.68304        0.56671
O         -0.06155        1.55920       -1.26028
O          0.25287        3.63196        0.07307
H         -0.63438        3.94796       -0.14861
S         -2.32289       -0.99650       -0.68277
O         -3.43149       -1.84003       -1.01561
O         -1.02020       -1.60476       -0.40563
O         -2.14002        0.05749       -1.84199
O         -2.73780       -0.12369        0.56605
H         -1.34455        0.64039       -1.66935
H         -2.02640        0.54096        0.79043
N          0.57612       -0.67957        2.71132
H          1.16814       -0.44048        3.50026
C         -0.37318       -1.73148        3.08700
H         -1.03858       -1.46265        3.91863
H         -0.99430       -1.97757        2.22202
H          0.17544       -2.63539        3.36805
H          0.07414        0.17177        2.46700
H          1.95501       -1.82048       -1.88953
H          1.69938       -0.06363       -1.76717
H          4.11308       -0.58668       -2.24200
H          3.90196        0.21506       -0.68391
H          4.46638       -2.63056       -1.08000
H          5.19262       -1.56871       -0.07114
H          0.66903       -1.35375        0.04259
H          2.21600       -1.79697        0.55521
C          2.20452       -0.92136       -1.31983
C          3.71033       -0.71443       -1.22914
N          1.66904       -1.09550        0.05037
N          4.30448       -1.82552       -0.48429
H          1.73024       -0.21536        0.58681
