27
2sa1tma_20.log	Energy: -988180.7541950
S          2.54062       -0.38996       -0.09136
O          1.62716       -0.19558       -1.20642
O          3.96403       -0.25668       -0.25141
O          2.08493        0.45098        1.12814
O          2.24093       -1.91611        0.37723
H          1.05810        0.65570        1.10743
H          2.99774       -2.22697        0.89451
S         -1.00042        1.77212        0.01375
O         -1.52686        2.99052        0.57317
O         -0.37151        0.82722        1.01049
O         -1.94842        0.98007       -0.82265
O          0.19354        2.21810       -0.95876
H         -2.02617       -0.48755       -0.36977
H          0.64882        1.42348       -1.30299
N         -2.20992       -1.49332       -0.04937
C         -3.13538       -2.08079       -1.04394
H         -4.02806       -1.45778       -1.10564
H         -2.64047       -2.09898       -2.01523
H         -3.40312       -3.09600       -0.74159
C         -0.90962       -2.20423       -0.00725
H         -0.40840       -2.08716       -0.96817
H         -0.29285       -1.75175        0.76595
H         -1.08201       -3.26128        0.20933
C         -2.82267       -1.38413        1.29648
H         -2.14042       -0.81872        1.93196
H         -3.76581       -0.84391        1.20945
H         -2.99535       -2.38391        1.70200
