27
2sa1tma_37.log	Energy: -988152.9265848
S          3.16529       -0.72715       -0.09409
O          4.44357       -1.31547       -0.36838
O          2.05354       -0.87404       -1.01719
O          2.58808       -1.30077        1.28846
O          3.40189        0.79501        0.21738
H          3.31471       -1.41758        1.91881
H          2.53591        1.28279        0.25766
S         -0.31523        1.46934       -0.09098
O         -1.40451        2.36820       -0.33951
O          1.00925        1.96550        0.24355
O         -0.67630        0.49353        1.12286
O         -0.21826        0.49798       -1.32526
H         -1.62247        0.26888        1.08604
H          0.60334       -0.05650       -1.26472
N         -4.26663       -1.27355        0.23861
C         -4.00696       -0.29021        1.26773
H         -4.93485       -0.01670        1.77721
H         -3.33456       -0.71136        2.02534
H         -3.57616        0.65217        0.86042
C         -3.03962       -1.69475       -0.41204
H         -2.34714       -2.11105        0.32744
H         -3.25529       -2.47826       -1.14323
H         -2.53280       -0.86714       -0.94715
C         -5.23273       -0.77876       -0.72766
H         -5.44651       -1.55642       -1.46595
H         -6.16806       -0.52597       -0.22031
H         -4.87298        0.11980       -1.26421
