18
2sa1a_07.log	Energy: -914197.7118145
S          1.94100       -0.25648       -0.00065
O          1.51665        0.33597        1.27158
O          1.10076       -1.39599       -0.45145
O          2.15232        0.74286       -1.06791
O          3.37629       -0.91351        0.32625
H          3.65426       -1.44138       -0.43552
S         -2.18142       -0.19559       -0.09500
O         -3.58133       -0.50292       -0.01812
O         -1.71107        0.87874       -0.96046
O         -1.63404        0.28635        1.34890
O         -1.40976       -1.51542       -0.34865
H         -1.77459       -0.40222        2.01489
H         -0.38305       -1.40899       -0.41095
N          0.34748        2.48597       -0.03938
H         -0.54153        2.08583       -0.39663
H          1.10806        2.15943       -0.67288
H          0.30768        3.49622        0.05306
H          0.56515        2.01378        0.85278
