37
2sa1dma1tma_36.log	Energy: -1073006.5922976
S         -1.04715        0.23657       -0.23005
O         -0.84257       -0.86185        0.74632
O         -1.44424        1.49809        0.41553
O          0.16709        0.42025       -1.09952
O         -2.17539       -0.19911       -1.22136
H         -3.10269       -0.19283       -0.69051
S          2.41708       -1.78958        0.00483
O          2.65632       -0.47033        0.58650
O          3.48883       -2.74055       -0.07656
O          1.22412       -2.47132        0.77486
O          1.84932       -1.57413       -1.45937
H          0.42768       -1.86006        0.80794
H          1.16401       -0.84646       -1.43968
N         -4.32679       -0.12266        0.16985
C         -4.24824       -1.18737        1.17745
C         -5.57229       -0.13899       -0.59890
H         -4.21779        0.77861        0.62957
H         -4.27935       -2.15498        0.67014
H         -3.29400       -1.11202        1.70209
H         -5.07569       -1.13777        1.89698
H         -5.63032       -1.07596       -1.15901
H         -6.45972       -0.06148        0.04318
H         -5.57153        0.68798       -1.31200
N          1.70350        2.34958        0.10808
C          1.54307        2.23208        1.58372
H          0.47711        2.14852        1.79837
H          2.05954        1.33018        1.90921
H          1.96812        3.12210        2.05312
C          3.13133        2.40256       -0.29418
H          3.62654        1.50769        0.07923
H          3.18798        2.42626       -1.38305
H          3.58091        3.30633        0.12297
C          0.92764        3.49487       -0.43386
H          1.04444        3.51377       -1.51772
H         -0.12190        3.34126       -0.18134
H          1.30994        4.41973        0.00348
H          1.27376        1.49157       -0.31174
