28
2sa1a1dma_36.log	Energy: -999024.8837825
S         -2.06687        0.87578        0.21726
O         -3.32327        1.17464        0.86739
O         -1.09249        0.07974        1.02208
O         -2.38912       -0.23971       -0.95717
O         -1.41986        2.00513       -0.47596
H         -3.07681        0.12036       -1.53339
H          0.17689        2.28000       -0.58761
S          1.89069        1.06415       -0.18038
O          3.30716        1.29686       -0.13464
O          1.17289        2.40949       -0.54416
O          1.36051       -0.00905       -1.01351
O          1.42482        0.77516        1.31816
H          0.82505       -2.34892        0.20786
H          0.44500        0.57603        1.32177
N         -0.16068       -2.28383       -0.16931
C         -1.06812       -3.11015        0.65196
C         -0.17527       -2.60883       -1.61013
H         -0.42916       -1.29636       -0.03005
H         -0.80068       -4.16235        0.54147
H         -0.97134       -2.80376        1.69322
H         -2.09453       -2.94391        0.32332
H          0.14068       -3.64482       -1.74544
H         -1.18606       -2.46879       -1.99377
H          0.50827       -1.93054       -2.11832
N          2.45212       -2.23828        0.92363
H          2.39832       -1.43709        1.55068
H          3.06869       -1.95571        0.16567
H          2.90955       -2.99256        1.42567
