31
2sa1a1tma_33.log	Energy: -1023676.1169862
S         -0.37362       -0.24242       -0.58310
O         -0.62674       -1.34504        0.34742
O          0.78614       -0.45219       -1.47900
O         -1.58691        0.19777       -1.30868
O         -0.02146        1.06158        0.30810
H          0.87939        0.95424        0.68855
S          3.61254       -0.04165        0.35599
O          4.79791       -0.55036        0.99211
O          2.53989        0.54223        1.14175
O          4.02837        1.14346       -0.65568
O          3.06227       -1.14961       -0.59175
H          4.83454        0.88594       -1.12567
H          2.13262       -0.91070       -0.95234
N         -2.66450        2.68469       -0.01577
H         -1.75585        2.48640        0.39941
H         -2.83797        3.67895        0.09263
H         -2.52964        2.50397       -1.00735
N         -3.69534       -0.43893        0.25837
C         -4.92971        0.26715       -0.15902
H         -4.76507        1.33444       -0.00543
H         -5.11000        0.06493       -1.21564
H         -5.76921       -0.09526        0.43885
C         -3.76196       -1.90076        0.00694
H         -3.96163       -2.06383       -1.05253
H         -2.79437       -2.33209        0.26516
H         -4.56184       -2.33151        0.61333
C         -3.34468       -0.14099        1.67218
H         -2.38883       -0.61812        1.88995
H         -3.25644        0.94081        1.77081
H         -4.13263       -0.53047        2.32121
H         -2.90463       -0.07823       -0.34018
