24
2sa1dma_21.log	Energy: -963518.5406675
S          0.85743       -0.67771        0.20256
O         -0.31133       -1.55263       -0.01476
O          1.99248       -1.33420        0.87253
O          1.27253        0.04981       -1.02269
O          0.41021        0.44427        1.26551
H         -0.46005        0.81447        0.99333
S         -3.09549        0.38587       -0.20095
O         -4.21414        0.94110       -0.91346
O         -2.03980        1.24100        0.31117
O         -3.63301       -0.37983        1.11087
O         -2.49732       -0.76353       -1.07068
H         -4.43097       -0.87757        0.88116
H         -1.60891       -1.09138       -0.69104
N          3.81751        0.32149       -0.23497
C          5.04719       -0.00179       -0.98284
C          3.88064        1.54162        0.60200
H          2.97874        0.39177       -0.85883
H          5.87079       -0.13997       -0.28093
H          4.88319       -0.92090       -1.54505
H          5.27882        0.81429       -1.66844
H          4.66425        1.42570        1.35183
H          4.09331        2.40204       -0.03359
H          2.91269        1.66729        1.08914
H          3.50059       -0.47356        0.35853
