36
2sa1dma1eda_190.log	Energy: -1083071.0039138
S         -0.94096       -2.01577       -0.44006
O          0.20888       -1.41372       -1.13185
O         -0.73118       -2.33244        0.96958
O         -2.20855       -1.25572       -0.67103
O         -1.13913       -3.40801       -1.24241
H         -1.90413       -3.86843       -0.87047
S         -2.58542        1.72842        0.20322
O         -3.32554        2.95125        0.29696
O         -1.24599        1.65607        0.77836
O         -3.45973        0.56640        0.83555
O         -2.49946        1.31750       -1.32896
H         -3.06451       -0.30192        0.57227
H         -2.25331        0.35943       -1.38611
N          3.74314        1.22407       -0.69546
C          4.42000        2.51177       -0.78476
C          3.61613        0.54927       -1.98525
H          4.21485        0.60301       -0.03809
H          3.81870        3.19798       -1.38923
H          4.52702        2.94439        0.21333
H          5.41732        2.43842       -1.24457
H          2.98354        1.14706       -2.64897
H          4.58493        0.39400       -2.48256
H          3.13509       -0.42310       -1.84604
H          1.81247        0.75054        2.49444
H          0.41402       -0.28804        2.14517
H          2.15370       -1.76765        2.77258
H          1.93872       -1.93755        1.03781
H          4.14406       -0.54154        2.37183
H          4.22021       -1.77501        1.31483
H          0.55746        1.29779        0.47396
H          2.20969        0.97530        0.08993
C          1.41981       -0.01620        1.82005
C          2.30037       -1.25576        1.81229
N          1.29591        0.58430        0.46645
N          3.70639       -0.92978        1.54101
H          0.96186       -0.14228       -0.19820
