31
2sa1ma1dma_57.log	Energy: -1023679.0990618
S         -2.31743        0.26686        0.07121
O         -2.30859        0.92640       -1.23227
O         -2.03729       -1.20009       -0.03089
O         -1.51387        0.92060        1.11283
O         -3.81833        0.35824        0.67127
H         -4.42133       -0.07642        0.05241
S          0.94563       -2.09107       -0.04594
O          2.01365       -3.04657       -0.10409
O          1.26576       -0.67166        0.06067
O          0.02064       -2.30029       -1.31820
O         -0.00646       -2.48738        1.15884
H         -0.83922       -1.83335       -1.15457
H         -0.84959       -1.97617        1.06899
N          3.08950        1.38336        0.99455
H          3.52573        1.80077        1.81040
C          4.07037        1.20423       -0.08409
H          4.94899        0.62213        0.21667
H          3.58641        0.68036       -0.91139
H          4.40625        2.18124       -0.44238
H          2.72787        0.47181        1.26929
N          0.62776        2.23362       -0.05566
C          0.20176        3.60051        0.30251
C          0.71549        1.99948       -1.51531
H          1.56480        2.00516        0.38624
H         -0.77851        3.79196       -0.13590
H          0.13128        3.67625        1.38765
H          0.92992        4.32031       -0.07601
H         -0.27186        2.13346       -1.95812
H          1.43487        2.70098       -1.94286
H          1.04563        0.97327       -1.67142
H         -0.06323        1.57724        0.36036
