33
2sa1ma1eda_11.log	Energy: -1058432.6534983
S          0.69444       -1.67053        0.09951
O          0.58982       -0.90629       -1.31789
O          2.00804       -2.29037        0.07500
O          0.58582       -0.56461        1.11690
O         -0.46080       -2.58367        0.19367
H         -2.06474       -2.12483       -0.10667
S         -1.74019        1.65438       -0.14984
O         -0.55614        2.52320       -0.19745
O         -3.04164        2.28466       -0.16754
O         -1.61662        0.54225       -1.17673
O         -1.69592        0.85930        1.26247
H         -0.22722       -0.33063       -1.32997
H         -0.86122        0.32828        1.31014
N         -2.94529       -1.66909       -0.44660
H         -2.60442       -0.75284       -0.84234
C         -3.92805       -1.44459        0.64192
H         -4.81642       -0.96794        0.22889
H         -4.18462       -2.39832        1.10225
H         -3.46887       -0.77730        1.37040
H         -3.32743       -2.23644       -1.20009
H          3.78455        2.54720       -0.06923
H          3.15308        2.16049        1.55174
H          5.13717        0.68859        0.83863
H          3.68244       -0.21659        1.26246
H          4.93300       -0.15364       -1.27637
H          3.63231       -1.05142       -0.77969
H          1.31563        2.24297       -0.17394
H          2.16399        1.01815       -0.96709
C          3.30470        1.77808        0.54054
C          4.11083        0.47211        0.52602
N          1.98807        1.47222       -0.05941
N          4.03964       -0.12043       -0.80554
H          1.48242        0.75435        0.50863
