30
2sa1a1eda_97.log	Energy: -1033760.5939393
S         -0.50400       -1.93612       -0.23242
O         -1.26751       -3.15553       -0.41138
O         -0.67078       -0.93129       -1.33282
O         -1.13023       -1.18453        1.07477
O          0.92614       -2.07736        0.10489
H         -2.16596       -1.25919        1.01734
H          1.72566       -0.74033       -0.56874
S         -1.04677        2.13824       -0.09776
O         -1.73226        3.36895        0.16971
O          0.21328        2.17913       -0.83942
O         -0.76789        1.42005        1.29367
O         -2.03155        1.14961       -0.82535
H         -0.84300        0.42394        1.22849
H         -1.52815        0.30941       -1.12328
H          2.97799        1.71712        0.49064
H          1.95000        0.56029        1.35366
H          4.38684        0.14794        1.84974
H          3.62737       -1.22930        1.04385
H          5.46894        0.67599       -0.19491
H          5.45806       -0.95767       -0.28224
H          1.41617        0.85397       -1.01684
H          2.92398        0.13733       -1.37851
C          2.72358        0.65915        0.59083
C          3.94805       -0.19251        0.90369
N          2.15755        0.20502       -0.70233
N          4.86540       -0.13811       -0.23563
N         -3.70805       -1.32124        0.69331
H         -3.99910       -0.45995        0.23850
H         -4.33314       -1.50174        1.47178
H         -3.80105       -2.08357        0.02638
