25
2sa1a1ma_50.log	Energy: -974355.4908376
S         -2.45468       -0.42292       -0.20535
O         -3.85802       -0.76700       -0.14008
O         -1.55299       -1.23044       -1.01452
O         -2.29407        1.05594       -0.70562
O         -1.93664       -0.38879        1.28123
H         -3.08946        1.61159       -0.35903
H         -0.93149       -0.35853        1.31336
S          1.63822       -0.54742        0.27206
O          0.66122       -0.38282        1.36050
O          2.95992       -1.03569        0.70795
O          1.10090       -1.70417       -0.68516
O          1.76556        0.68302       -0.56498
H          0.14378       -1.55624       -0.87744
H          3.32551        0.90975       -0.89648
N          4.36413        0.74028       -0.71691
H          4.28102       -0.16373       -0.20880
C          4.92793        1.79164        0.15795
H          5.96455        1.55870        0.40033
H          4.86608        2.75487       -0.34735
H          4.33136        1.81715        1.06936
H          4.87600        0.62320       -1.58761
N         -4.46213        2.23244        0.21838
H         -4.37836        2.64390        1.14223
H         -5.03262        1.39279        0.29565
H         -4.94172        2.89293       -0.38408
