39
2sa1eda1tma_66.log	Energy: -1107749.4270149
S          0.97604       -1.53594       -0.94538
O          0.43906       -1.38619        0.44240
O          1.59482       -0.24076       -1.36430
O          1.79756       -2.70521       -1.16723
O         -0.31893       -1.72676       -1.88330
H         -0.85876       -0.90346       -1.81685
S         -1.23231        1.79637       -0.69711
O         -0.96094        1.69861        0.77714
O         -1.73061        0.46308       -1.16681
O         -2.04492        2.92883       -1.07545
O          0.19118        1.99609       -1.39692
H          0.67619        1.12333       -1.45944
H          2.45775        1.72878       -0.18204
H          2.66560        2.72400        1.26826
H          4.75843        1.49474        0.59024
H          4.23946        1.10542        2.23234
H          3.65171       -0.61479       -0.08475
H          4.63659       -0.96723        1.18691
H          0.58814        1.39031        1.25472
H          1.47133       -0.00877        1.16442
C          2.66108        1.70084        0.88730
C          3.97672        0.98516        1.17376
N          1.52310        0.97303        1.50749
N          3.82611       -0.43345        0.90054
H          1.61636        0.93624        2.52081
N         -2.38719       -0.99674        1.09066
C         -2.56207       -2.36296        0.53439
H         -2.97479       -2.27493       -0.47036
H         -1.58265       -2.83647        0.48337
H         -3.24235       -2.92422        1.17843
C         -1.76013       -1.01703        2.43315
H         -0.81885       -1.55960        2.35775
H         -1.57958        0.01597        2.73128
H         -2.44075       -1.50510        3.13428
C         -3.65568       -0.22396        1.08661
H         -3.44717        0.78055        1.45473
H         -4.01723       -0.15896        0.06123
H         -4.38147       -0.73009        1.72648
H         -1.74906       -0.49659        0.44168
