27
2sa1tma_10.log	Energy: -988181.5385066
S         -1.96489       -1.22705        0.11395
O         -1.75908       -2.57357        0.61118
O         -2.62800       -0.23858        0.95491
O         -0.69071       -0.63679       -0.47236
O         -2.94952       -1.34525       -1.18154
H         -2.80607       -2.21322       -1.58190
S          2.58314       -0.45002        0.12801
O          3.86693       -0.98110        0.50045
O          1.94080        0.60082        0.88985
O          2.70780        0.19623       -1.35738
O          1.61081       -1.64532       -0.09347
H          3.27990       -0.36942       -1.89550
H          0.64963       -1.31720       -0.22349
N         -0.74268        2.06719       -0.01815
C         -2.06257        2.40576       -0.61301
H         -2.04232        2.15258       -1.67348
H         -2.82680        1.81377       -0.11039
H         -2.24324        3.47495       -0.48334
C         -0.72973        2.29560        1.45203
H         -1.52216        1.68920        1.89051
H          0.23788        1.97790        1.83829
H         -0.89519        3.35817        1.64343
C          0.36289        2.78240       -0.70399
H          1.30636        2.47957       -0.25390
H          0.35589        2.50908       -1.75954
H          0.20643        3.85762       -0.59322
H         -0.60943        1.03577       -0.16526
