25
2sa1a1ma_08.log	Energy: -974371.0877988
S          2.27454       -0.16625       -0.20715
O          2.30263       -1.60350        0.17349
O          1.45265        0.57673        0.80776
O          3.54191        0.44377       -0.53364
O          1.40399       -0.07385       -1.56690
H          0.57926       -0.59836       -1.45617
S         -1.97060       -0.39787       -0.29229
O         -2.10389        0.90255       -0.97786
O         -0.98216       -1.31929       -0.86826
O         -1.81753       -0.25149        1.17401
O         -3.37418       -1.16541       -0.54476
H         -4.09483       -0.53324       -0.41933
N         -0.07872        2.51926       -0.05971
H          0.62523        1.77447        0.24644
H          0.39838        3.20528       -0.63992
C         -0.71770        3.11545        1.13505
H          0.04761        3.56100        1.77009
H         -1.22155        2.30885        1.66837
H         -1.44489        3.86816        0.83093
H         -0.79722        2.01934       -0.62099
N          0.22772       -2.09187        1.72544
H         -0.44843       -1.30561        1.62057
H          1.08095       -1.91006        1.09872
H          0.52190       -2.17971        2.69408
H         -0.23363       -2.94463        1.41711
