24
2sa1dma_08.log	Energy: -963524.8927262
S          1.65549       -1.11736       -0.04065
O          1.91938       -0.10638       -1.07740
O          1.86509       -0.66878        1.33344
O          0.32534       -1.78002       -0.21865
O          2.74369       -2.26080       -0.37557
H          2.63479       -2.98646        0.25490
S         -2.33941       -0.15803        0.05362
O         -3.76372       -0.02418        0.01980
O         -1.53186        1.02200        0.36639
O         -1.96419       -1.30336        1.07938
O         -1.85328       -0.74216       -1.33810
H         -1.02031       -1.56510        0.93353
H         -0.94201       -1.11972       -1.22769
N          0.90428        2.21509       -0.06218
C          0.75099        3.33901       -1.01006
C          1.50086        2.57345        1.24606
H         -0.02332        1.77723        0.09751
H          1.72968        3.77644       -1.21061
H          0.31814        2.95821       -1.93496
H          0.08880        4.08878       -0.57538
H          2.47811        3.02800        1.07818
H          0.84194        3.27539        1.75849
H          1.61279        1.65560        1.82381
H          1.45956        1.44696       -0.50038
