31
2sa1a1tma_21.log	Energy: -1023683.5796112
S         -1.91184       -1.47996       -0.26919
O         -0.82128       -0.94426       -1.15475
O         -2.75643       -2.48644       -0.86119
O         -1.15370       -2.21136        0.94587
O         -2.63117       -0.31878        0.33509
H         -0.49859       -1.59516        1.33243
H         -1.93738        1.03550        0.14434
S          2.00189       -0.43333        0.50477
O          3.28898       -0.87901        0.98922
O          0.87561       -0.31670        1.42832
O          2.16221        1.00689       -0.13366
O          1.60402       -1.34416       -0.69545
H          3.09088        1.06031       -0.59160
H          0.59687       -1.23592       -0.92707
N          4.57294        0.90580       -1.15670
H          4.96003        0.22331       -0.50753
H          5.16521        1.72961       -1.14662
H          4.60735        0.50101       -2.08735
N         -1.66606        2.07080        0.06295
C         -0.80780        2.23913       -1.13446
H          0.14253        1.73633       -0.96112
H         -1.30753        1.78317       -1.98884
H         -0.64453        3.30657       -1.30638
C         -2.95561        2.78502       -0.07809
H         -3.44717        2.44149       -0.98847
H         -3.58533        2.54410        0.77867
H         -2.77545        3.86160       -0.12793
C         -0.95740        2.43847        1.31254
H         -1.62807        2.26529        2.15489
H         -0.07818        1.80201        1.41370
H         -0.67063        3.49211        1.26845
