30
2sa1a1eda_197.log	Energy: -1033731.5986595
S          2.01709       -0.25763       -0.19161
O          2.43635        1.09396        0.12907
O          1.00720       -0.45692       -1.22748
O          3.26013       -1.10241       -0.57350
O          1.52799       -0.96894        1.13288
H          4.14887       -0.61083       -0.28223
H          0.56041       -1.17731        1.08781
S         -2.13384       -1.27489        0.12398
O         -3.18972       -0.44503        0.65522
O         -1.03935       -1.72647        0.96250
O         -2.81649       -2.62220       -0.41364
O         -1.58880       -0.65590       -1.20254
H         -3.74685       -2.44203       -0.61043
H         -0.59844       -0.49632       -1.15918
H         -0.56655        3.59378        0.87560
H          0.41560        2.70822       -0.31206
H         -1.63315        3.71096       -1.27424
H         -1.57330        1.95438       -1.48869
H         -3.72108        3.04884       -0.61965
H         -3.20644        1.73278        0.19286
H          0.24027        1.42702        1.64067
H         -1.38481        1.47271        1.63278
C         -0.52905        2.69539        0.24057
C         -1.69006        2.75472       -0.74291
N         -0.56807        1.45642        1.02636
N         -2.97131        2.69404       -0.03798
N          5.34971        0.22218        0.14726
H          6.06281        0.33005       -0.56707
H          5.79721       -0.10408        0.99818
H          4.93720        1.13431        0.33213
