33
2sa1ma1eda_190.log	Energy: -1058404.5598241
S         -2.57239       -0.66687       -0.28641
O         -3.99753       -0.90716       -0.34554
O         -1.68684       -1.39169       -1.18899
O         -2.27814        0.85406       -0.48467
O         -2.14445       -0.95166        1.20738
H         -3.02351        1.41137        0.01936
H         -1.14460       -0.94301        1.29679
S          1.44771       -1.20420        0.31974
O          2.71302       -1.80475        0.75597
O          0.46133       -0.96364        1.38379
O          1.69481        0.03501       -0.49560
O          0.82500       -2.27259       -0.68592
H          3.21023        0.08795       -0.73411
H         -0.08518       -1.98695       -0.94493
N         -4.21774        2.06648        0.70474
H         -4.49307        1.41562        1.43639
C         -5.30010        2.20843       -0.28341
H         -6.23253        2.57727        0.15631
H         -4.97745        2.89980       -1.06447
H         -5.47501        1.23204       -0.73828
H         -4.00805        2.95292        1.15358
H          4.34353        2.47072       -1.42430
H          5.04328        3.19925        0.02068
H          5.98045        1.02663       -0.01407
H          4.65667        0.91448        1.17359
H          4.68436       -0.12768       -1.58200
H          4.32789       -0.93261       -0.15572
H          2.70426        3.60471        0.06330
H          2.34325        1.99923        0.04398
C          4.34119        2.43133       -0.31873
C          4.89838        1.08259        0.12249
N          3.05225        2.68391        0.30043
N          4.28063       -0.03315       -0.65273
