36
2sa1dma1eda_42.log	Energy: -1083091.7371530
S          1.58347        1.83214       -0.35499
O          0.99467        2.15044        0.95366
O          2.77458        0.96367       -0.30167
O          0.58434        1.36677       -1.34536
O          2.10382        3.27176       -0.88020
H          2.54949        3.14534       -1.72928
S         -0.86984       -1.75009       -0.70988
O         -0.96521       -3.19061       -0.82372
O         -2.01207       -0.94353       -1.17591
O         -0.45534       -1.27572        0.66408
O          0.39480       -1.35686       -1.64668
H          1.14083       -1.40553        0.88008
H          0.46932       -0.37498       -1.68535
N          2.19675       -1.44334        0.93673
C          2.64888       -2.73807        0.38475
C          2.61480       -1.17138        2.32649
H          2.51795       -0.65494        0.34231
H          2.25000       -3.54482        1.00113
H          2.25673       -2.82985       -0.62818
H          3.73965       -2.77208        0.37932
H          2.18478       -1.92712        2.98546
H          3.70377       -1.19440        2.39246
H          2.25221       -0.18138        2.60499
H         -2.97702        2.14564        1.95253
H         -2.85655        2.95644        0.36911
H         -4.99960        1.65637        0.66949
H         -4.05742        1.10825       -0.71930
H         -4.93029       -0.52614        1.24076
H         -3.59494       -0.84447        0.33205
H         -0.78007        1.77592        0.90872
H         -1.61584        0.34443        1.06745
C         -2.90555        1.98897        0.87430
C         -4.07771        1.14436        0.37865
N         -1.63664        1.27171        0.61586
N         -4.01664       -0.18184        0.97836
H         -1.51464        1.05419       -0.38145
