33
2sa1ma1eda_149.log	Energy: -1058408.9197662
S          1.08446        2.12372        0.07401
O          1.10221        2.01965        1.53255
O          2.15142        1.42682       -0.65075
O         -0.26080        1.79791       -0.50277
O          1.33833        3.67776       -0.29663
H          0.79465        4.22026        0.29069
S         -2.77449       -0.51211       -0.26603
O         -1.88846       -1.10969       -1.24874
O         -3.59993       -1.34255        0.57640
O         -2.00415        0.47076        0.65671
O         -3.72607        0.44732       -1.14094
H         -1.26841        1.04226        0.17767
H         -4.47712        0.72015       -0.59447
N          0.82946       -1.06350        1.78944
H          1.76134       -1.43264        1.96354
C         -0.19285       -1.79170        2.54528
H         -0.01879       -1.78334        3.62822
H         -1.16944       -1.34532        2.35022
H         -0.22512       -2.83225        2.20967
H          0.84262       -0.07443        2.03888
H          1.39845       -3.13223       -1.25339
H          1.73210       -2.07407       -2.63379
H          3.86976       -2.64825       -1.74207
H          3.56395       -0.97191       -1.28116
H          3.47251       -3.28487        0.49515
H          4.24793       -1.85952        0.68755
H         -0.01940       -1.13053       -1.28680
H          0.88302       -1.17608        0.14152
C          1.79970       -2.15767       -1.54589
C          3.25018       -2.00504       -1.10099
N          0.94872       -1.11100       -0.94339
N          3.40294       -2.28674        0.32591
H          1.34197       -0.17176       -1.11983
