31
2sa1a1tma_15.log	Energy: -1023687.6926095
S         -2.56287       -0.73008       -0.03485
O         -2.88319        0.66755        0.34461
O         -1.60739       -0.83682       -1.13827
O         -2.21772       -1.57252        1.13078
O         -3.93601       -1.33800       -0.64701
H         -4.62335       -1.28271        0.03086
S          2.76551       -0.30977       -0.05189
O          1.97975       -0.74117       -1.21301
O          2.99755        1.12996        0.08285
O          2.25924       -0.93327        1.20794
O          4.22868       -0.97955       -0.31518
H          4.86509       -0.52570        0.25303
N          0.27787       -2.51730        0.30996
H          1.06510       -2.01823        0.80652
H          0.47197       -3.51047        0.22466
H         -0.63616       -2.34499        0.77412
H          0.22775       -2.08450       -0.62028
N         -0.66460        2.20474        0.04127
C          0.06715        1.94003       -1.22993
H          0.19712        0.86496       -1.34786
H         -0.52673        2.33314       -2.05554
H          1.04547        2.41989       -1.17865
C         -0.99183        3.64008        0.20118
H         -1.57789        3.96910       -0.65732
H         -1.57230        3.77234        1.11466
H         -0.06318        4.21102        0.26066
C          0.06860        1.67870        1.22498
H         -0.52648        1.87646        2.11666
H          0.20286        0.60464        1.10797
H          1.05215        2.14578        1.28106
H         -1.56731        1.67248        0.01967
