31
2sa1a1tma_11.log	Energy: -1023690.2864450
S         -2.42492       -0.77530        0.18264
O         -2.04172       -2.11930        0.65956
O         -2.68157        0.19954        1.24445
O         -1.53656       -0.27617       -0.89326
O         -3.83348       -0.97049       -0.61719
H         -4.49297       -1.28632        0.01541
S          2.75316       -0.46229       -0.01345
O          3.96495        0.13373       -0.55406
O          1.47774        0.02816       -0.57284
O          2.77083       -1.94137        0.08704
O          2.63840        0.08099        1.54033
H          3.50033       -0.04216        1.95951
N          0.26683       -2.53365       -0.78062
H          1.21922       -2.52411       -0.34243
H          0.13152       -1.58862       -1.16729
H          0.20091       -3.23569       -1.51113
H         -0.50496       -2.64406       -0.09374
N         -0.39529        2.18952       -0.19466
C         -0.03602        2.17082        1.25040
H         -0.81752        1.62583        1.78124
H          0.92036        1.66176        1.36545
H          0.02654        3.20229        1.60500
C          0.65163        2.84409       -1.01976
H          1.59192        2.31825       -0.86929
H          0.36309        2.77446       -2.06896
H          0.72793        3.89133       -0.71948
C         -1.72943        2.80759       -0.41317
H         -1.99308        2.70380       -1.46566
H         -2.45695        2.27887        0.20234
H         -1.67545        3.86262       -0.13657
H         -0.47937        1.19636       -0.49122
