25
2sa1a1ma_43.log	Energy: -974360.0826695
S         -2.85140       -0.14785       -0.25200
O         -4.15630       -0.66862       -0.54305
O         -1.75180       -0.39909       -1.20098
O         -2.93611        1.37817       -0.00875
O         -2.40873       -0.75881        1.14966
H         -1.96428        1.85542        0.06943
H         -1.44980       -0.57938        1.31639
S          1.21340       -0.50197        0.35664
O          2.40802       -1.21181        0.85847
O          0.22056       -0.14511        1.38274
O          1.60821        0.69019       -0.46243
O          0.54516       -1.54265       -0.63775
H          3.26115        0.43480       -1.00749
H         -0.34368       -1.19422       -0.93092
N          4.14275       -0.09175       -0.79741
H          3.74142       -0.80237       -0.13342
C          5.14805        0.76607       -0.13123
H          6.00296        0.16096        0.16878
H          5.46635        1.55486       -0.81210
H          4.68067        1.20317        0.75030
H          4.49584       -0.54550       -1.63678
N         -0.67907        2.51849        0.24269
H         -0.70314        3.50233       -0.00577
H          0.05034        2.05159       -0.30111
H         -0.39607        2.43376        1.21559
