36
2sa1dma1eda_113.log	Energy: -1083085.6483094
S          2.87215       -0.17932        0.57552
O          3.84018       -0.14733        1.64450
O          1.46325        0.17299        0.97689
O          3.22386        0.62626       -0.62950
O          2.79936       -1.71326        0.11035
H          1.98612        1.36169       -1.22511
H          2.04424       -1.86920       -0.49892
S         -0.78856       -1.47819       -0.77614
O         -2.10353       -2.12882       -0.87648
O          0.37838       -2.19140       -1.29535
O         -0.87743       -0.07133       -1.28316
O         -0.60794       -1.34614        0.82320
H         -2.44003        0.68931        0.62975
H          0.26665       -0.89636        1.01126
N         -3.25995        0.02692        0.56472
C         -4.36974        0.71662       -0.12067
C         -3.57197       -0.45297        1.92780
H         -2.95546       -0.78784       -0.01036
H         -4.63564        1.61648        0.43682
H         -4.04019        0.98263       -1.12519
H         -5.23121        0.05014       -0.18265
H         -3.83737        0.39804        2.55764
H         -4.40226       -1.15900        1.88326
H         -2.68351       -0.95165        2.31487
H         -1.43877        2.50353       -1.08744
H         -1.17876        3.81673        0.05429
H          0.80371        3.83874       -1.22677
H          1.29015        2.91993        0.20592
H          0.35663        0.96712       -1.43908
H          1.08334        2.02120       -2.50823
H         -0.35489        1.17907        0.89990
H         -0.96376        2.39453        1.77087
C         -0.83338        2.81860       -0.22954
C          0.63263        2.91692       -0.66655
N         -1.07797        1.89907        0.89165
N          1.04065        1.76578       -1.52504
