33
2sa1ma1eda_212.log	Energy: -1058391.5747079
S          1.67486        1.65974        0.19290
O          3.02891        1.47965        0.65248
O          0.54408        1.47769        1.08527
O          1.53586        3.18695       -0.29735
O          1.45691        0.89306       -1.15044
H          2.39289        3.47976       -0.63822
H          0.66151        0.26320       -1.12726
S         -1.83195       -0.50090       -0.48055
O         -2.73851       -1.66084       -0.49239
O         -0.56225       -0.70626       -1.19745
O         -2.52459        0.75585       -0.87255
O         -1.46683       -0.34288        1.07899
H         -4.16883        0.51016       -0.63353
H         -0.74879        0.32706        1.16770
N         -4.93865       -0.12132       -0.27824
H         -5.78847       -0.02822       -0.82886
C         -5.14858        0.10589        1.17313
H         -5.85586       -0.62670        1.56032
H         -4.18263       -0.01018        1.66553
H         -5.52432        1.11641        1.32845
H         -4.48573       -1.04317       -0.43530
H          3.00000       -3.08780       -0.87338
H          4.53383       -3.00250       -0.02309
H          2.77553       -3.17222        1.60742
H          3.49167       -1.55459        1.72588
H          0.98226       -2.09832        0.29302
H          1.12299       -1.36178        1.74079
H          3.12000       -0.72967       -1.21320
H          4.52691       -0.62923       -0.42845
C          3.61580       -2.44103       -0.23395
C          2.87943       -2.20395        1.08812
N          3.96356       -1.25263       -0.99941
N          1.60252       -1.52962        0.86311
