28
2sa1a1dma_24.log	Energy: -999031.6203665
S         -2.19497       -0.47333       -0.39905
O         -1.75627        0.69752       -1.19510
O         -3.58150       -0.85571       -0.51508
O         -1.36738       -1.74848       -0.95865
O         -1.70437       -0.31096        1.01795
H         -0.83222       -1.42423        1.60081
S          2.24038       -0.53821       -0.12820
O          3.65471       -0.84630       -0.15196
O          1.74524        0.24607        1.02151
O          1.93459        0.48669       -1.37262
O          1.35440       -1.71151       -0.39887
H          2.28864        0.10205       -2.18618
H         -0.40603       -1.55462       -0.99196
N         -0.10551        2.22100        0.30705
C         -0.90349        2.72556        1.44494
C          0.60084        3.27138       -0.45459
H          0.58115        1.51855        0.64643
H         -1.64210        3.43711        1.07258
H         -1.40943        1.87511        1.90079
H         -0.24173        3.21615        2.16082
H         -0.13268        3.95959       -0.87722
H          1.27555        3.81038        0.21247
H          1.17165        2.79198       -1.24818
H         -0.73950        1.67608       -0.33366
N         -0.10398       -2.17576        1.86524
H          0.55711       -2.20055        1.05696
H         -0.55173       -3.07906        1.99347
H          0.40184       -1.90090        2.70322
