27
2sa1tma_08.log	Energy: -988182.2347785
S         -1.41825       -1.44945        0.04773
O         -0.91586       -0.51361       -0.98645
O         -0.30647       -2.25317        0.62114
O         -2.32014       -0.82989        1.00869
O         -2.34952       -2.53113       -0.71993
H         -1.77446       -3.13817       -1.20497
S          2.40354       -0.03881        0.11101
O          3.80578        0.15754        0.38016
O          1.39524        0.77633        0.75870
O          2.15895        0.23724       -1.46449
O          2.09254       -1.55032        0.27690
H          2.90628       -0.12640       -1.96031
H          1.09212       -1.77598        0.39766
N         -1.20549        2.01427       -0.02907
C         -1.22836        2.17054        1.45001
H         -1.83430        1.36390        1.86264
H         -0.20908        2.08994        1.82281
H         -1.65599        3.14692        1.68907
C         -0.29019        2.98207       -0.68067
H          0.70186        2.85637       -0.24985
H         -0.25417        2.76457       -1.74841
H         -0.66402        3.99445       -0.51263
C         -2.57663        2.06778       -0.59808
H         -2.51615        1.87617       -1.66911
H         -3.16988        1.28646       -0.12260
H         -3.00461        3.05441       -0.40816
H         -0.85686        1.05354       -0.25792
