34
2sa1ma1tma_10.log	Energy: -1048351.6601703
S          2.47255       -0.46129        0.34279
O          2.73473        0.70658        1.18645
O          2.20152       -1.71411        1.05658
O          1.48653       -0.19377       -0.74290
O          3.83273       -0.71390       -0.52829
H          4.55440       -0.87617        0.09428
S         -2.74036       -0.26955        0.08491
O         -3.46009        0.72049       -0.71476
O         -2.83256       -1.65923       -0.42515
O         -1.35442        0.09165        0.43189
O         -3.46745       -0.28616        1.55093
H         -4.41993       -0.36188        1.40557
N         -0.19030       -2.39774       -0.28612
H          0.23826       -1.52244       -0.64126
H          0.10969       -2.41209        0.69123
C          0.31460       -3.57798       -1.01422
H         -0.14175       -4.47924       -0.60531
H          0.05316       -3.48042       -2.06734
H          1.39740       -3.62111       -0.89913
H         -1.22787       -2.28118       -0.33415
N          0.31377        2.33529       -0.33374
C         -0.83288        2.73202       -1.19151
H         -0.62207        2.42693       -2.21705
H         -1.73817        2.23445       -0.84415
H         -0.94311        3.81755       -1.14130
C          0.07588        2.65729        1.09988
H         -0.83567        2.14921        1.40936
H          0.92470        2.28046        1.67127
H         -0.01665        3.74077        1.20270
C          1.58838        2.92570       -0.81889
H          2.39393        2.58083       -0.17124
H          1.76548        2.58302       -1.83818
H          1.50099        4.01392       -0.79232
H          0.42423        1.30350       -0.39685
