37
2sa1dma1tma_32.log	Energy: -1073008.8275867
S         -1.14455        0.72370       -0.56671
O         -1.29131        0.87448        0.89207
O         -0.68673       -0.78020       -0.84567
O         -2.45703        0.78254       -1.27159
O         -0.13926        1.62516       -1.16030
H         -3.45892        0.00267       -0.42126
H          1.34753        1.74568       -0.38246
S          2.91757       -1.40491       -0.09739
O          3.82110       -0.22577       -0.00267
O          2.90980       -2.12048       -1.35258
O          3.51977       -2.47795        0.97076
O          1.57472       -1.03491        0.44089
H          3.65382       -2.02266        1.81188
H          0.19818       -0.95712       -0.40957
N          2.20934        1.95445        0.17258
C          1.81597        2.02096        1.59648
C          2.82929        3.18474       -0.35319
H          2.86223        1.14107        0.05047
H          1.06868        2.80492        1.72607
H          1.38216        1.05783        1.86370
H          2.70020        2.22813        2.20217
H          2.12547        4.01271       -0.25460
H          3.74260        3.39911        0.20429
H          3.06893        3.03208       -1.40541
N         -4.13999       -0.52057        0.23258
C         -4.50795        0.44669        1.29430
H         -3.58611        0.78819        1.76685
H         -5.01298        1.29649        0.83376
H         -5.16816       -0.03852        2.01760
C         -5.30130       -0.93506       -0.58362
H         -5.75225       -0.04962       -1.03269
H         -4.95579       -1.60411       -1.37213
H         -6.03034       -1.44778        0.04868
C         -3.40144       -1.68444        0.78606
H         -3.04578       -2.29910       -0.04074
H         -2.54129       -1.30964        1.34063
H         -4.06789       -2.25853        1.43474
