34
2sa1ma1tma_48.log	Energy: -1048333.4502032
S          0.40533       -1.56441       -0.37851
O          1.58568       -2.35133       -0.67896
O         -0.81727       -2.33978       -0.04661
O          0.61576       -0.47463        0.61256
O          0.06827       -0.79708       -1.77187
H          1.37448        0.83896        0.05762
H         -0.81990       -0.39331       -1.67624
S         -3.01594        0.29810        0.21345
O         -4.40179        0.67896        0.27932
O         -2.25290        0.50069       -1.00961
O         -2.19979        1.17314        1.30526
O         -2.87348       -1.15404        0.72636
H         -2.70008        1.17681        2.13396
H         -1.98760       -1.62851        0.43057
N          3.91368       -0.60968        0.42825
H          3.31746       -1.26590       -0.07626
C          3.70666       -0.80330        1.86679
H          3.95193       -1.81252        2.22352
H          4.31423       -0.08690        2.43057
H          2.65372       -0.61758        2.09381
H          4.87063       -0.84371        0.18262
N          1.65484        1.79157       -0.30591
C          2.34516        1.58618       -1.60478
H          3.25188        1.01379       -1.40756
H          1.68434        1.01621       -2.25803
H          2.57985        2.56012       -2.04080
C          0.38678        2.54647       -0.45886
H         -0.25434        2.02238       -1.16682
H         -0.12255        2.57927        0.50412
H          0.60925        3.55496       -0.81460
C          2.55663        2.40004        0.70076
H          2.02867        2.46113        1.65314
H          3.42706        1.74859        0.79282
H          2.84388        3.40013        0.36724
