28
2sa1a1dma_78.log	Energy: -998994.6815886
S         -1.77008        0.19006        0.51032
O         -2.84680        1.09266        0.83437
O         -0.75554       -0.10225        1.51926
O         -2.32357       -1.18132        0.02175
O         -1.05639        0.80135       -0.76643
H         -3.24449       -1.03786       -0.47188
H         -0.22027        0.31075       -0.95442
S          1.93878       -1.51826       -0.15521
O          3.35467       -1.71093       -0.29626
O          1.19653       -0.68150       -1.08059
O          1.19629       -2.93979       -0.24402
O          1.66773       -1.05955        1.31870
H          1.74204       -3.61101        0.19187
H          0.73189       -0.71492        1.42419
N          1.95463        3.49874       -0.10948
C          1.61938        2.96776       -1.42071
C          1.27118        2.80494        0.96913
H          2.95707        3.44924        0.03301
H          0.55346        3.13208       -1.61172
H          2.18407        3.50113       -2.19051
H          1.81772        1.88698       -1.52772
H          0.19226        2.96726        0.87795
H          1.44526        1.71500        0.97840
H          1.59032        3.21162        1.93240
N         -4.59900       -0.67935       -1.09682
H         -4.55005       -0.50403       -2.09592
H         -4.86572        0.18890       -0.63750
H         -5.32886       -1.36522       -0.93075
