21
2sa1ma_02.log	Energy: -938866.9039689
S          1.71064       -0.75312       -0.04425
O          2.37609        0.21687       -0.92350
O          1.03384       -0.08557        1.09986
O          0.83092       -1.72959       -0.71079
O          2.93558       -1.60283        0.56023
H          2.58935       -2.42897        0.92612
S         -2.20021       -0.15198       -0.01386
O         -1.51884        0.95904       -0.68959
O         -3.62388       -0.11331        0.12685
O         -1.81942       -1.48555       -0.75820
O         -1.56373       -0.30994        1.42148
H         -0.82937       -1.59013       -0.82612
H         -0.56493       -0.25498        1.37049
N          0.78476        2.42115       -0.69165
H          0.75276        3.07295       -1.47294
H         -0.12407        1.91136       -0.65261
C          1.06696        3.09938        0.59798
H          1.11117        2.32880        1.36647
H          2.02578        3.61237        0.53112
H          0.27007        3.80974        0.81538
H          1.50287        1.68328       -0.88512
