25
2sa1a1ma_69.log	Energy: -974339.6874508
S         -1.72030       -0.25113        0.16741
O         -2.34477        1.04546       -0.02995
O         -0.71983       -0.39249        1.22178
O         -2.82249       -1.31556        0.40862
O         -1.09405       -0.74705       -1.19533
H         -3.76993       -0.93664        0.14648
H         -0.10453       -0.72486       -1.15669
S          2.54390       -0.42910       -0.12193
O          3.35351        0.68215       -0.56124
O          1.57984       -1.05820       -1.00578
O          3.54404       -1.61075        0.29870
O          1.88011       -0.09809        1.25691
H          4.40146       -1.22265        0.52433
H          0.88032       -0.14338        1.20471
N          0.52446        1.94700       -0.69379
H          1.28369        2.14864       -1.33648
C          0.60731        2.81322        0.48239
H          0.51779        3.88660        0.26303
H         -0.18879        2.53946        1.17988
H          1.56448        2.64391        0.98196
H         -0.34774        2.11219       -1.18571
N         -5.08959       -0.25703       -0.22704
H         -5.48452       -0.56995       -1.10830
H         -4.81945        0.71942       -0.32490
H         -5.80919       -0.32198        0.48594
