36
2sa1dma1eda_163.log	Energy: -1083072.8143539
S         -1.41445        2.04928       -0.21581
O         -2.02541        3.34467        0.00322
O         -0.21527        2.00732       -1.05787
O         -1.28380        1.20849        1.00523
O         -2.52890        1.20305       -1.13874
H         -3.39299        1.61310       -0.99498
S         -1.60973       -2.03978       -0.09638
O         -0.26291       -1.57622       -0.40198
O         -1.87281       -3.43596        0.09558
O         -2.11852       -1.26300        1.18159
O         -2.58450       -1.53704       -1.24766
H         -1.82957       -0.30269        1.14423
H         -2.51894       -0.55733       -1.33834
N          1.45606        0.21280        1.80163
C          2.20104        1.29727        2.43397
C          1.60286       -1.07022        2.48410
H          0.47082        0.47420        1.75505
H          3.27653        1.10134        2.35389
H          1.97964        2.23699        1.92128
H          1.95701        1.41759        3.49900
H          2.65022       -1.38888        2.43803
H          1.30627       -1.02264        3.54132
H          0.99235       -1.81873        1.97533
H          3.00616        1.01893       -2.36945
H          3.06488        1.78034       -0.77254
H          5.15300        0.48428       -1.17958
H          4.22905       -0.21514        0.15297
H          4.40140       -1.32062       -2.55063
H          4.61307       -2.07644       -1.11411
H          0.94603        0.65365       -1.18673
H          1.76794       -0.82003       -1.28601
C          3.03257        0.82113       -1.29400
C          4.22780       -0.05317       -0.93071
N          1.79103        0.12859       -0.90696
N          4.08949       -1.35010       -1.58616
H          1.70934        0.07048        0.17154
