34
2sa1ma1tma_08.log	Energy: -1048353.8659916
S         -2.31919       -0.64256       -0.27489
O         -2.05422       -1.85798        0.50124
O         -2.60093        0.56525        0.52159
O         -1.32338       -0.43224       -1.35046
O         -3.74144       -0.87539       -1.02581
H         -3.69912       -1.72117       -1.49168
S          1.77732        1.18793       -0.65866
O          2.42830        2.47388       -0.48716
O          2.49864        0.11917       -1.34879
O          1.20059        0.66079        0.64891
O          0.45383        1.54716       -1.52043
H         -1.57801        1.85104        0.71643
H         -0.16467        0.77119       -1.54590
N         -0.78404        2.51884        0.87465
H          0.02963        1.89641        1.07808
C         -1.05322        3.51249        1.93082
H         -0.17376        4.14128        2.06764
H         -1.90854        4.12437        1.64498
H         -1.27893        2.98631        2.85779
H         -0.55863        2.94031       -0.02945
N          1.49571       -2.02474        0.67686
C          2.96659       -2.12183        0.84640
H          3.43921       -1.65603       -0.01816
H          3.25072       -1.58245        1.75063
H          3.24587       -3.17449        0.93136
C          0.75852       -2.55014        1.85292
H          1.08489       -2.00492        2.73964
H         -0.30874       -2.39842        1.68410
H          0.98165       -3.61352        1.96745
C          1.04839       -2.66347       -0.58942
H         -0.02909       -2.53151       -0.67865
H          1.55350       -2.16189       -1.41464
H          1.30755       -3.72454       -0.55448
H          1.28168       -0.99406        0.61405
