39
2sa1eda1tma_106.log	Energy: -1107733.1205225
S          0.57388        1.70851        0.35178
O          1.13511        0.82757        1.40677
O          1.59067        2.12585       -0.62853
O         -0.67317        1.17477       -0.21216
O          0.07874        3.05702        1.08543
H          0.85451        3.58510        1.32050
S          3.54639       -0.77736       -0.47937
O          4.74853       -1.53164       -0.67001
O          2.26726       -1.31931       -0.94241
O          3.41351       -0.45891        1.06341
O          3.74825        0.63648       -1.14756
H          2.56987        0.04501        1.24629
H          2.93446        1.20170       -1.04030
H         -0.27422       -2.98706        1.42047
H          0.03575       -1.29571        1.91020
H         -2.30421       -2.16146        2.56486
H         -2.29958       -0.69417        1.58572
H         -3.31175       -3.24846        0.79920
H         -3.53942       -1.73008        0.13448
H          0.61141       -1.73312       -0.44169
H         -1.04857       -2.11785       -0.67628
C         -0.58420       -1.94711        1.29298
C         -2.07822       -1.76701        1.56855
N         -0.36127       -1.58434       -0.12889
N         -2.85344       -2.39698        0.50250
H         -0.55662       -0.57044       -0.26211
N         -4.29787        0.01708       -0.58157
C         -3.60971        0.19904       -1.85426
H         -2.55963        0.44216       -1.67362
H         -3.66702       -0.72425       -2.43964
H         -4.04985        1.01704       -2.45205
C         -5.70624       -0.28610       -0.79037
H         -5.80609       -1.19460       -1.39256
H         -6.19536       -0.45633        0.17347
H         -6.23813        0.53236       -1.30861
C         -4.13599        1.19241        0.26787
H         -4.59536        1.00795        1.24401
H         -3.07268        1.40255        0.40886
H         -4.60881        2.08891       -0.17205
