31
2sa1a1tma_47.log	Energy: -1023656.1697027
S         -1.92342        0.51765        0.51632
O         -2.72014        1.67059        0.85811
O         -1.03029       -0.05602        1.51880
O         -2.82270       -0.64467        0.00109
O         -1.06527        0.93983       -0.74817
H         -3.67320       -0.25090       -0.48257
H         -0.38068        0.25377       -0.93887
S          1.26450       -2.05569       -0.16509
O          2.59892       -2.56819       -0.29951
O          0.74901       -1.04840       -1.07462
O          0.21418       -3.26396       -0.29782
O          1.08542       -1.58225        1.31799
H          0.58676       -4.05584        0.11758
H          0.26262       -1.01982        1.42249
N         -4.88530        0.46633       -1.09036
H         -4.80865        0.61573       -2.09189
H         -4.89231        1.37670       -0.63515
H         -5.77374        0.01126       -0.90496
N          2.62369        2.63721       -0.09910
C          3.91048        1.97983        0.03795
H          4.60159        2.35085       -0.72509
H          4.33827        2.19993        1.02061
H          3.83790        0.87944       -0.06824
C          1.71042        2.21373        0.94606
H          2.12827        2.45842        1.92705
H          0.75362        2.73256        0.84056
H          1.51557        1.12498        0.92244
C          2.05870        2.40398       -1.41639
H          1.09970        2.92234       -1.50637
H          2.73509        2.79496       -2.18280
H          1.89268        1.32876       -1.62081
