28
2sa1a1dma_02.log	Energy: -999035.3258287
S          2.13455       -0.50409       -0.08780
O          2.16870        0.66833        0.80919
O          1.99346       -1.79968        0.58978
O          1.19943       -0.29249       -1.21467
O          3.61176       -0.63109       -0.73613
H          3.80332        0.17901       -1.22741
S         -2.20602       -0.36775       -0.31503
O         -3.51931       -0.97278       -0.31614
O         -2.07177        0.96181       -0.95025
O         -1.52862       -0.34615        1.02934
O         -1.29173       -1.38990       -1.18655
H         -0.96687       -1.80286        1.34796
H         -0.39857       -0.98975       -1.31930
N         -0.05500        2.27148        0.29219
C          0.51476        3.29309       -0.60724
C         -0.65551        2.79887        1.53493
H         -0.79598        1.73697       -0.22730
H          1.30956        3.83197       -0.08886
H          0.91918        2.78736       -1.48404
H         -0.27201        3.98482       -0.91139
H          0.11470        3.29195        2.13028
H         -1.44358        3.50752        1.27644
H         -1.08217        1.95632        2.07882
H          0.69705        1.59631        0.53488
N         -0.45260       -2.73644        1.27004
H          0.54102       -2.49066        1.04644
H         -0.85870       -3.22753        0.47418
H         -0.52093       -3.29340        2.11626
