30
2sa1a1eda_158.log	Energy: -1033750.8985980
S          0.45249        2.07630       -0.13977
O          1.30194        1.23466       -0.99470
O         -0.99911        1.95448       -0.45187
O          0.73231        1.98946        1.29477
O          0.84532        3.57020       -0.62561
H          0.30049        4.19954       -0.13347
S         -2.76703       -0.97967        0.09786
O         -3.98117       -1.58601        0.57644
O         -1.48889       -1.62400        0.33983
O         -2.82126       -0.85963       -1.51109
O         -2.75657        0.49964        0.56961
H         -3.67574       -0.48752       -1.77340
H         -1.97257        1.06106        0.19288
H          2.23443       -3.24349       -0.39699
H          1.69513       -2.45638       -1.89030
H          4.10818       -2.27959       -1.80473
H          3.41247       -0.67327       -1.57018
H          4.63026       -2.32411        0.51119
H          4.92370       -0.76128        0.12558
H          0.30980       -1.70430       -0.09676
H          1.60001       -1.25019        0.87923
C          2.16309       -2.28422       -0.91775
C          3.53874       -1.65462       -1.10170
N          1.28761       -1.39270       -0.13041
N          4.19801       -1.46531        0.18750
H          1.27659       -0.43528       -0.53954
N          1.86589       -0.56156        2.44879
H          2.87413       -0.52815        2.55823
H          1.45502       -0.91548        3.30563
H          1.52868        0.39187        2.29953
