27
2sa1tma_21.log	Energy: -988180.4293459
S         -0.55838        0.71550        0.11125
O          0.52987        1.56404        0.63722
O         -0.72340       -0.56678        0.80424
O         -1.84098        1.45395       -0.02447
O         -0.19386        0.38712       -1.42245
H          0.72352        0.03639       -1.45787
S          3.36300       -0.27055       -0.12915
O          2.43193       -0.43683       -1.23002
O          4.78398       -0.27813       -0.35288
O          3.01478        1.00736        0.69441
O          2.98942       -1.47517        0.87296
H          2.01218        1.20336        0.69467
H          3.66858       -1.53111        1.56036
N         -3.75320       -0.34070       -0.00249
C         -3.84866       -0.88575        1.37416
H         -2.86247       -1.25552        1.65608
H         -4.14087       -0.08150        2.05012
H         -4.59350       -1.68489        1.39577
C         -5.00683        0.31193       -0.44064
H         -5.26378        1.09809        0.26974
H         -4.84917        0.75267       -1.42539
H         -5.80838       -0.42910       -0.48485
C         -3.29372       -1.37197       -0.96833
H         -3.13488       -0.89676       -1.93666
H         -2.34745       -1.77584       -0.60797
H         -4.05175       -2.15499       -1.04627
H         -2.99222        0.41519        0.01289
