34
2sa1ma1tma_57.log	Energy: -1048332.0154718
S         -0.24912       -0.37118       -1.03378
O          0.78602        0.51077       -1.61763
O         -0.60926        0.05349        0.35117
O         -1.42310       -0.58634       -1.87305
O          0.40537       -1.83036       -0.88776
H          1.25953       -1.74591       -0.40947
S          3.52914       -0.02441        0.42470
O          2.77700       -1.26537        0.39819
O          4.96188       -0.02746        0.55891
O          3.16024        0.86409       -0.80007
O          2.90280        0.78129        1.67438
H          2.18968        0.72853       -1.10178
H          3.49767        1.51237        1.89470
N         -2.36037        2.43963        0.70252
H         -2.38198        3.24607        1.31816
C         -2.42002        2.87457       -0.69734
H         -1.63900        3.59239       -0.97945
H         -2.31546        2.00277       -1.34952
H         -3.39425        3.33157       -0.89870
H         -1.47387        1.96362        0.85757
N         -3.16775       -0.72983        0.72254
C         -3.53786       -0.40357        2.11945
H         -2.76468       -0.78688        2.78636
H         -3.59551        0.68242        2.20125
H         -4.49909       -0.86683        2.35344
C         -4.13986       -0.17159       -0.25092
H         -4.22926        0.89654       -0.05427
H         -3.74262       -0.33607       -1.25247
H         -5.10009       -0.67622       -0.11965
C         -2.95955       -2.18603        0.51849
H         -2.64158       -2.34409       -0.51205
H         -2.17383       -2.52481        1.19399
H         -3.89400       -2.71274        0.72386
H         -2.22900       -0.28312        0.54658
