39
2sa1eda1tma_129.log	Energy: -1107720.8425467
S          3.39911       -0.43594       -0.07447
O          4.26075        0.62216        0.38449
O          2.55044       -0.28859       -1.24037
O          4.31963       -1.70923       -0.43597
O          2.56746       -0.93611        1.15151
H          5.06597       -1.73345        0.17964
H          1.74464       -1.46831        0.86810
S         -0.65761       -1.27332       -0.02274
O         -0.98823       -0.25226        0.98312
O          0.45992       -2.16050        0.36681
O         -1.86666       -1.99772       -0.47699
O         -0.17322       -0.49576       -1.34594
H         -3.11631       -1.05374       -0.08386
H          0.80414       -0.36354       -1.32194
H         -0.37846        3.38694        1.50974
H          1.23444        4.02187        1.15833
H         -0.36879        4.59727       -0.60958
H          0.97748        3.60054       -1.20880
H         -1.17403        2.84268       -2.01359
H         -0.51144        1.70482       -1.06603
H          1.85000        1.91071        1.60731
H          0.40920        1.24091        1.19284
C          0.49541        3.27491        0.84906
C          0.07345        3.59405       -0.58060
N          1.09405        1.94534        0.93566
N         -0.92961        2.63372       -1.05017
N         -3.94846       -0.42290        0.10103
C         -3.67695        0.85781       -0.60472
H         -2.77007        1.31902       -0.20622
H         -3.52560        0.64275       -1.66325
H         -4.53301        1.52430       -0.47474
C         -5.13219       -1.12144       -0.44946
H         -4.97763       -1.28582       -1.51603
H         -5.24230       -2.08350        0.05189
H         -6.02327       -0.51054       -0.28889
C         -4.04336       -0.22738        1.56893
H         -4.19865       -1.19710        2.04307
H         -3.10016        0.19632        1.91166
H         -4.88084        0.43925        1.78745
