36
2sa1dma1eda_67.log	Energy: -1083087.9564586
S         -2.94658        0.43515       -0.12333
O         -2.56562        1.68893       -0.80876
O         -3.38712       -0.63761       -1.01357
O         -1.92618        0.01491        0.86856
O         -4.21071        0.81100        0.82972
H         -4.95570        1.04137        0.25827
S          2.59255       -0.80753       -0.12802
O          3.14268        0.53160        0.10651
O          2.57051       -1.70139        1.02795
O          1.28397       -0.77188       -0.85247
O          3.54213       -1.50564       -1.25468
H          4.43282       -1.57949       -0.88586
N         -0.67870       -2.33995        0.29730
C         -1.40517       -3.14046       -0.71339
C         -0.23946       -3.10152        1.48649
H          0.14388       -1.88337       -0.15105
H         -2.26960       -3.60963       -0.24227
H         -1.75423       -2.47135       -1.49900
H         -0.73270       -3.90020       -1.11444
H         -1.11851       -3.49543        1.99872
H          0.41300       -3.91543        1.16913
H          0.32423       -2.43594        2.13820
H         -1.27115       -1.52960        0.59128
H          1.98052        2.20711       -1.25927
H          0.63227        3.27162       -1.73042
H          2.37365        4.30628       -0.14608
H          0.70404        4.41388        0.43307
H          2.57648        2.31290        1.30448
H          1.93060        3.52741        2.23399
H          0.42101        0.79199       -0.64649
H          0.28888        1.75967        0.68539
C          1.10727        2.75174       -0.89756
C          1.52105        3.71665        0.21725
N          0.16390        1.74721       -0.34017
N          1.78416        2.94125        1.42273
H         -0.83987        1.90910       -0.55789
