31
2sa1ma1dma_71.log	Energy: -1023673.5055616
S         -3.50688       -0.36181       -0.24990
O         -4.88221       -0.78442       -0.25570
O         -2.42932       -1.33224       -0.32592
O         -3.25235        0.59063       -1.52431
O         -3.30163        0.59318        0.96372
H         -4.01124        1.18245       -1.62819
H         -2.31170        0.73240        1.18812
S          0.30644        0.53295        0.75925
O          1.60572        0.64324        1.42410
O         -0.85841        0.87497        1.60168
O          0.26534        1.21750       -0.55792
O          0.19576       -1.04812        0.44184
H          1.79504        1.20356       -1.21943
H         -0.71413       -1.24433        0.12510
N          2.83325        1.16053       -1.39268
H          3.16186        0.20973       -0.96499
C          3.49406        2.27639       -0.67857
H          4.57428        2.21245       -0.81649
H          3.12415        3.23042       -1.05474
H          3.24014        2.17731        0.37727
H          3.01116        1.18415       -2.39360
N          3.50701       -1.11634       -0.06003
C          4.87743       -1.16464        0.44465
C          3.08101       -2.36430       -0.69397
H          2.87297       -0.89810        0.71069
H          5.57589       -1.27926       -0.39086
H          5.10727       -0.23085        0.96440
H          5.03948       -1.99835        1.14195
H          3.66304       -2.53164       -1.60639
H          3.21583       -3.23269       -0.03473
H          2.02297       -2.28748       -0.95120
