37
2sa1dma1tma_35.log	Energy: -1073008.6528755
S          0.52443       -1.91794       -0.44327
O          0.58254       -1.05818        0.77776
O          0.32368       -0.90685       -1.66432
O          1.76797       -2.61449       -0.73990
O         -0.68547       -2.78483       -0.39785
H         -1.93240       -2.15616        0.26532
S         -1.02832        2.18504       -0.40786
O         -1.86693        3.29268       -0.84537
O          0.42036        2.36073       -0.55028
O         -1.29151        2.09706        1.23071
O         -1.47725        0.84120       -0.86167
H         -1.68453        2.94374        1.47811
H         -0.35257       -0.21402       -1.41501
N         -2.82772       -1.83449        0.76196
C         -3.74854       -1.21604       -0.22513
C         -2.45736       -0.93984        1.88816
H         -3.24461       -2.68896        1.12944
H         -3.26127       -0.32386       -0.62233
H         -3.93051       -1.93314       -1.02601
H         -4.68583       -0.95373        0.26916
H         -1.99901       -0.04066        1.47805
H         -3.35507       -0.68729        2.45643
H         -1.73146       -1.45756        2.51436
N          2.81452        0.42585        0.49549
C          2.83467        1.67935        1.28802
H          2.06760        2.34363        0.88862
H          2.61534        1.43864        2.32908
H          3.82614        2.13201        1.21000
C          3.75806       -0.59294        1.01944
H          3.54024       -0.76443        2.07403
H          3.60426       -1.51855        0.46240
H          4.78026       -0.22661        0.89999
C          3.04329        0.68124       -0.95373
H          2.96752       -0.26840       -1.48331
H          2.26813        1.36237       -1.30299
H          4.03800        1.11685       -1.07628
H          1.85673       -0.00622        0.59369
