37
2sa1dma1tma_46.log	Energy: -1073002.6407763
S          2.12484       -0.08331        0.86427
O          3.41150       -0.31347        1.55518
O          0.94802       -0.03225        1.74043
O          2.21656        1.07764       -0.06643
O          1.98618       -1.38546       -0.06463
H          3.81922        1.08756       -0.58816
H          1.07055       -1.43641       -0.45715
S         -1.68755       -1.01197       -0.38643
O         -2.91827       -1.77803       -0.58082
O         -0.47510       -1.55585       -1.01630
O         -1.88438        0.43746       -0.73175
O         -1.46334       -1.04230        1.20215
H         -3.28853        0.79453       -0.38931
H         -0.57849       -0.64992        1.42759
N          4.79707        0.69172       -0.52518
C          5.82765        1.74347       -0.54351
C          4.94868       -0.36754       -1.54723
H          4.70453        0.24609        0.41261
H          5.81524        2.24354       -1.51317
H          5.60722        2.46447        0.24367
H          6.80863        1.29683       -0.37293
H          4.89231        0.08291       -2.53916
H          5.91111       -0.86422       -1.41452
H          4.13380       -1.08139       -1.41480
N         -4.32290        1.01957       -0.12388
C         -4.57414        0.36695        1.18508
H         -4.42465       -0.70594        1.06342
H         -3.85054        0.74322        1.90861
H         -5.59408        0.58874        1.51033
C         -4.44199        2.48979       -0.04262
H         -3.75000        2.85688        0.71607
H         -4.17648        2.92126       -1.00833
H         -5.46730        2.76367        0.21986
C         -5.16728        0.43924       -1.19371
H         -4.91771        0.92412       -2.13824
H         -4.93526       -0.62423       -1.26268
H         -6.22236        0.60026       -0.95643
