37
2sa1dma1tma_52.log	Energy: -1073001.5429611
S         -2.19477       -0.29102       -0.80801
O         -3.51537       -0.53912       -1.38583
O         -1.04974       -0.37595       -1.72433
O         -2.17929        1.00089       -0.03242
O         -2.03057       -1.44560        0.28840
H         -3.48656        1.19050        0.56479
H         -1.09414       -1.46934        0.62921
S          1.66543       -1.00912        0.44551
O          2.92109       -1.72224        0.67857
O          0.47784       -1.53728        1.13312
O          1.82566        0.46743        0.68134
O          1.42204       -1.16435       -1.13142
H          3.21846        0.83353        0.31112
H          0.50902       -0.84912       -1.36967
N         -4.51627        1.26292        0.96841
C         -4.87548       -0.05774        1.54068
C         -5.40765        1.69521       -0.13286
H         -4.50252        1.96550        1.70559
H         -4.84722       -0.78880        0.73223
H         -4.12972       -0.33083        2.28691
H         -5.87046       -0.01027        1.98818
H         -5.30837        0.96231       -0.93461
H         -6.43913        1.75465        0.22120
H         -5.07330        2.66866       -0.49263
N          4.24224        1.06792        0.01156
C          4.46998        0.36951       -1.27776
H          4.33999       -0.70015       -1.11311
H          3.72290        0.70813       -1.99595
H          5.47769        0.59254       -1.63829
C          4.32952        2.53561       -0.13032
H          3.60564        2.86056       -0.87833
H          4.08902        2.99923        0.82701
H          5.33973        2.81802       -0.43846
C          5.12908        0.54777        1.07794
H          4.89343        1.06162        2.01073
H          4.92397       -0.51703        1.19318
H          6.17317        0.72438        0.80556
