24
2sa1dma_16.log	Energy: -963523.7461911
S          2.23339       -0.44649        0.12325
O          1.60859        0.56405        0.97828
O          3.65190       -0.41900       -0.06317
O          1.82334       -1.88034        0.65305
O          1.52792       -0.37464       -1.30120
H          0.61708       -0.77670       -1.22127
S         -1.94464       -0.97946       -0.18974
O         -2.07214        0.24994       -0.99394
O         -3.05300       -1.90632       -0.18832
O         -0.60858       -1.61444       -0.41415
O         -1.83744       -0.35822        1.33296
H          0.84503       -1.98774        0.56581
H         -2.11561       -1.03705        1.96239
N         -0.42947        2.16372        0.00476
C          0.25216        2.96434       -1.03613
C         -1.18865        2.94829        1.00273
H         -1.08187        1.47926       -0.44845
H          0.94918        3.65531       -0.56027
H          0.79759        2.28432       -1.69086
H         -0.49304        3.51733       -1.60911
H         -0.50588        3.60424        1.54426
H         -1.94793        3.53860        0.48843
H         -1.66637        2.24860        1.68806
H          0.28216        1.57900        0.48401
