39
2sa1eda1tma_123.log	Energy: -1107725.9545213
S          0.73449       -1.66120       -0.59898
O         -0.33177       -2.67170       -0.39731
O          2.00011       -2.16839       -1.10647
O          0.20654       -0.67461       -1.75910
O          0.88500       -0.80436        0.61397
H         -0.73388       -0.46041       -1.57840
H          2.38028       -0.13247        0.68855
S         -2.95309       -0.61672        0.38319
O         -4.36871       -0.53410        0.62222
O         -2.38619       -0.19386       -0.88602
O         -2.20187        0.34142        1.45448
O         -2.46627       -2.03858        0.76470
H         -2.57161        0.18113        2.33472
H         -1.56490       -2.29299        0.31393
H          0.63600        4.06582       -0.62923
H          0.90892        2.66002       -1.66896
H         -1.33466        3.71966       -1.96330
H         -1.41336        2.00149       -1.55801
H         -2.87677        3.69647       -0.29491
H         -2.13409        2.54336        0.57659
H          0.21734        2.63463        1.17607
H          0.39348        1.28255        0.28666
C          0.33487        3.02790       -0.80899
C         -1.15369        2.99376       -1.16270
N          0.70722        2.24876        0.37306
N         -1.96659        3.36103       -0.00194
N          3.37888        0.20834        0.63479
C          3.54128        0.78212       -0.72707
H          3.29991        0.00741       -1.45575
H          2.84639        1.61703       -0.81697
H          4.57287        1.12028       -0.84929
C          3.56502        1.23907        1.68475
H          2.82789        2.02437        1.50336
H          3.39683        0.78039        2.65999
H          4.58432        1.62813        1.62609
C          4.24568       -0.97906        0.83788
H          4.05378       -1.38784        1.83046
H          3.98676       -1.72152        0.08267
H          5.29192       -0.67703        0.75205
