28
2sa1a1dma_44.log	Energy: -999021.9232368
S          1.50929       -1.40383       -0.03074
O          0.25461       -2.18907        0.13427
O          1.48582       -0.57259       -1.24930
O          1.94792       -0.69844        1.17021
O          2.65594       -2.52561       -0.25056
H          2.36880       -3.12175       -0.95568
S         -2.43867       -0.06110       -0.21927
O         -3.76167        0.18638       -0.73076
O         -1.36802        0.89268       -0.41542
O         -2.52082       -0.17458        1.39926
O         -2.01680       -1.48957       -0.65279
H         -3.27638       -0.72791        1.64323
H         -1.05467       -1.73557       -0.35656
N          1.26164        2.05918       -0.35032
C          0.62486        3.12609       -1.14557
C          2.70792        2.25029       -0.11499
H          0.78801        1.96690        0.59788
H          1.10910        3.18955       -2.12167
H         -0.42965        2.88322       -1.26685
H          0.73402        4.07705       -0.62077
H          3.23179        2.27225       -1.07173
H          2.86346        3.19067        0.41713
H          3.06391        1.41060        0.48259
H          1.13661        1.13605       -0.80964
N          0.24254        1.53798        2.19758
H          0.72964        0.64229        2.25476
H         -0.75169        1.33183        2.14588
H          0.41540        2.05162        3.05489
