36
2sa1dma1eda_17.log	Energy: -1083092.4713892
S          1.00700        1.81112       -0.70233
O          0.53834        1.15328        0.59053
O         -0.05928        2.66886       -1.21592
O          2.34770        2.35545       -0.59457
O          1.18176        0.55810       -1.70936
H          0.38700       -0.02131       -1.68272
S         -1.68541       -1.71689       -0.40540
O         -2.77905       -0.73469       -0.53553
O         -0.58083       -1.48340       -1.35562
O         -1.23710       -1.93814        0.97965
O         -2.32437       -3.15125       -0.80831
H         -2.65628       -3.09034       -1.71479
N         -2.14141        1.53957        0.87352
C         -2.49047        1.05807        2.22713
C         -2.64935        2.88628        0.53738
H         -1.09709        1.50839        0.76932
H         -3.57581        1.04450        2.33774
H         -2.09883        0.04593        2.33889
H         -2.04727        1.72458        2.96860
H         -3.74052        2.87263        0.55236
H         -2.27474        3.60021        1.27243
H         -2.27020        3.15359       -0.44806
H         -2.48265        0.83077        0.19412
H          2.63536       -2.85669        0.32044
H          1.90308       -1.75668       -0.87292
H          4.38061       -1.33329       -0.62096
H          3.40662        0.07030       -0.18987
H          4.87863       -1.64114        1.64865
H          4.64121       -0.02253        1.68318
H          0.59771       -1.83718        1.18778
H          1.98853       -1.29104        2.01845
C          2.41232       -1.81129        0.08827
C          3.66787       -0.94703        0.11753
N          1.48215       -1.30594        1.12905
N          4.19578       -0.91012        1.48507
H          1.18385       -0.31485        0.91890
