28
2sa1a1dma_26.log	Energy: -999028.8524787
S         -1.18345       -1.54046       -0.04102
O         -2.22582       -0.90430        0.76504
O         -0.72167       -0.68059       -1.16618
O         -0.07648       -2.11682        0.74364
O         -1.85894       -2.77776       -0.83256
H         -2.07630       -3.46893       -0.19139
S          2.36056        0.18637       -0.03428
O          3.70436        0.67340       -0.14367
O          1.31048        1.04164        0.51595
O          1.89262       -0.27574       -1.47654
O          2.40157       -1.15441        0.79749
H          0.92085       -0.49321       -1.45846
H          1.48848       -1.54983        0.85206
N         -1.43220        1.94847       -0.33085
C         -0.66713        3.10534       -0.83770
C         -2.88149        1.99160       -0.61424
H         -1.04960        1.06878       -0.71817
H         -1.04260        4.01458       -0.36497
H          0.38204        2.95485       -0.58538
H         -0.78822        3.17848       -1.91996
H         -3.31193        2.87720       -0.14345
H         -3.04200        2.03163       -1.69289
H         -3.33128        1.08746       -0.20356
H         -1.29157        1.85417        0.72521
N         -1.01066        1.40189        2.34567
H         -0.00968        1.21720        2.30973
H         -1.48274        0.49965        2.38359
H         -1.21639        1.91587        3.19500
