24
2sa1dma_31.log	Energy: -963496.2955886
S         -2.22243       -0.38283        0.10066
O         -2.92752        0.85552        0.32273
O         -1.29177       -0.90384        1.08698
O         -3.30879       -1.53958       -0.08735
O         -1.54358       -0.35618       -1.31152
H         -4.14217       -1.14332       -0.38110
H         -0.56018       -0.51141       -1.24040
S          2.01898       -0.69725       -0.08718
O          2.97651        0.37016       -0.21640
O          1.01651       -0.94357       -1.11000
O          2.82651       -2.07612        0.00984
O          1.34235       -0.62505        1.32495
H          3.70957       -1.89928        0.36559
H          0.35090       -0.64765        1.25096
N          0.03218        2.00112        0.04239
C          0.48776        2.52128       -1.24176
C          0.72939        2.61348        1.16764
H         -0.96170        2.18921        0.13594
H          1.54156        2.26314       -1.38233
H         -0.08675        2.05941       -2.04952
H          0.38999        3.61652       -1.32717
H          1.79198        2.35880        1.11467
H          0.64063        3.71266        1.18661
H          0.33149        2.21591        2.10524
