31
2sa1ma1dma_56.log	Energy: -1023679.1013711
S          2.31888        0.81237       -0.28628
O          3.72746        0.82510       -0.61568
O          1.92369        0.24652        1.02371
O          1.89306        2.40445       -0.06986
O          1.39952        0.35682       -1.35814
H          2.46111        2.94079       -0.63880
H          0.76434       -1.14755       -1.39228
S         -0.27087       -2.23502        0.14235
O         -0.87676       -3.53110        0.20624
O          0.34765       -2.05440       -1.29546
O         -1.08706       -1.04991        0.43671
O          0.97126       -2.22224        1.11241
H         -0.60876        0.65976        0.52314
H          1.38554       -1.31223        1.14423
N         -0.78265        1.66202        0.71432
H         -0.02906        2.19827        0.27250
C         -0.79789        1.87881        2.17660
H         -1.02418        2.92382        2.38889
H         -1.55992        1.23478        2.61534
H          0.18108        1.61641        2.57717
H         -1.72013        1.86481        0.25318
N         -3.23703        1.66457       -0.57782
C         -4.04483        0.79298        0.28230
C         -2.85108        0.99993       -1.82855
H         -3.76370        2.50535       -0.79395
H         -3.44215       -0.07300        0.57255
H         -4.33828        1.33623        1.18453
H         -4.95081        0.42619       -0.21950
H         -2.22739        0.13370       -1.58974
H         -3.71874        0.65059       -2.40456
H         -2.26714        1.68605       -2.44684
