28
2sa1a1dma_45.log	Energy: -999022.6831507
S         -1.18233       -1.46702        0.00224
O         -1.77548       -0.93342        1.23511
O         -1.33079       -0.61503       -1.17641
O          0.21807       -1.94378        0.21465
O         -2.01588       -2.80161       -0.39234
H         -1.89837       -3.45581        0.31024
S          2.52563        0.13344       -0.05211
O          3.88882        0.57462       -0.05337
O          1.45804        1.10261       -0.26907
O          2.38079       -1.02835       -1.12257
O          2.24892       -0.61245        1.32376
H          1.50865       -1.47138       -0.98548
H          1.40225       -1.11811        1.23384
N         -1.12264        2.07601       -0.05933
C         -0.85943        2.25910        1.38551
C         -0.82203        3.26202       -0.88516
H         -0.54958        1.29244       -0.39834
H         -1.49761        3.06109        1.76087
H         -1.09352        1.32031        1.88870
H          0.19264        2.50542        1.52708
H         -1.43351        4.10006       -0.54663
H          0.23762        3.49976       -0.78725
H         -1.05019        3.03248       -1.92611
H         -2.13115        1.77398       -0.17686
N         -3.70580        0.99982       -0.17601
H         -4.62495        1.40963       -0.05152
H         -3.54624        0.31510        0.56284
H         -3.70096        0.47400       -1.04627
