31
2sa1a1tma_10.log	Energy: -1023691.3456935
S         -1.49127       -1.58479       -0.16383
O         -0.94081       -1.12641        1.13641
O         -2.93100       -1.44854       -0.30490
O         -0.90661       -0.48334       -1.24380
O         -0.91156       -2.88517       -0.57200
H          0.55279       -3.12645        0.31376
S          2.25763        0.49545       -0.07451
O          2.74593        0.03855        1.22844
O          1.27733        1.57762       -0.08637
O          3.52772        1.15376       -0.84644
O          1.83180       -0.66600       -0.92322
H          4.29837        0.59114       -0.69390
H          0.07455       -0.58108       -1.29317
N          1.35813       -2.70653        0.83640
H          2.00798       -3.37933        1.22849
H          0.92629       -2.11659        1.55574
H          1.81284       -2.04687        0.16901
N         -1.56556        1.97127        0.14038
C         -1.14038        3.21857       -0.54559
H         -0.07436        3.36012       -0.38030
H         -1.33566        3.11068       -1.61280
H         -1.71698        4.05254       -0.14015
C         -3.00710        1.68790       -0.09612
H         -3.17245        1.59432       -1.16912
H         -3.26758        0.74150        0.37635
H         -3.59330        2.51283        0.31368
C         -1.24310        1.99559        1.59366
H         -1.48866        1.01727        2.00644
H         -0.17419        2.17428        1.69898
H         -1.82773        2.78902        2.06449
H         -1.03044        1.18684       -0.27806
