18
2sa1a_11.log	Energy: -914193.4030834
S         -2.43934        0.19570       -0.12692
O         -1.51534        0.22995       -1.24589
O         -3.85944        0.16262       -0.33323
O         -2.07249       -0.98481        0.83753
O         -2.05500        1.50230        0.72557
H         -1.08159       -1.12830        0.86714
H         -2.73797        1.65839        1.39440
S          1.58469       -0.66307        0.07347
O          2.89078       -1.26863       -0.00746
O          0.52356       -1.34270        0.81087
O          1.68036        0.77923        0.65629
O          1.10466       -0.44894       -1.42216
H          2.60215        1.20998        0.38644
H          0.15599       -0.17299       -1.43569
N          4.01414        1.66828       -0.02254
H          4.47241        2.27927        0.64627
H          4.04051        2.11789       -0.93280
H          4.54720        0.80356       -0.08500
