34
2sa1ma1tma_46.log	Energy: -1048332.3742755
S          0.22672       -0.18282       -0.37792
O          0.57225       -0.47792        1.01729
O         -0.70215        0.96299       -0.53662
O          1.42687       -0.05107       -1.24001
O         -0.51118       -1.46547       -0.99111
H         -1.41702       -1.52040       -0.61155
S         -3.82455       -0.09200        0.26605
O         -4.99664       -0.06896        1.10026
O         -3.01361       -1.29077        0.15212
O         -4.26007        0.21916       -1.25507
O         -2.93944        1.13407        0.64668
H         -4.93237        0.91553       -1.25240
H         -2.01673        1.07941        0.20227
N          3.14794        2.30837       -0.55523
H          3.61584        3.03666       -1.08498
C          2.33440        2.90886        0.50804
H          1.59861        3.64102        0.15207
H          1.78401        2.12037        1.02938
H          2.98742        3.40108        1.23581
H          2.53174        1.81693       -1.19993
N          3.54694       -0.86630        0.21885
C          3.17798       -2.29713        0.36087
H          2.25779       -2.35287        0.94274
H          3.00422       -2.71419       -0.63141
H          3.99102       -2.82894        0.86006
C          4.74217       -0.67001       -0.63455
H          4.55853       -1.13079       -1.60587
H          4.88844        0.40450       -0.75275
H          5.60720       -1.13499       -0.15608
C          3.69744       -0.20357        1.53917
H          3.93787        0.84374        1.35738
H          2.74593       -0.28440        2.06447
H          4.49800       -0.69984        2.09309
H          2.74051       -0.41532       -0.28734
