31
2sa1a1tma_36.log	Energy: -1023675.1825744
S         -0.38717       -1.04092       -0.50820
O          0.66476       -0.81392       -1.52462
O         -0.78049        0.24306        0.15129
O         -1.53846       -1.80558       -0.97190
O          0.26005       -1.94467        0.64527
H          1.09020       -1.51837        0.95273
S          3.38212        0.26439        0.32408
O          4.81276        0.33362        0.46387
O          2.58139       -0.56465        1.20585
O          2.78022        1.74755        0.53155
O          3.05626       -0.05226       -1.16562
H          3.41389        2.38483        0.17218
H          2.08095       -0.34024       -1.29584
N         -1.87607        2.74788       -1.09720
H         -1.83232        2.81379       -2.10955
H         -1.20816        2.02910       -0.81526
H         -1.53586        3.63315       -0.73490
N         -3.43629        0.22481        0.51980
C         -4.07038        0.16075       -0.82225
H         -3.83635        1.08963       -1.34329
H         -3.64396       -0.68997       -1.35412
H         -5.14988        0.04606       -0.69824
C         -3.66403       -1.01944        1.29646
H         -3.26515       -1.85600        0.72216
H         -3.13093       -0.94231        2.24470
H         -4.73492       -1.14021        1.47468
C         -3.84478        1.44097        1.26210
H         -3.30703        1.47029        2.21062
H         -3.57683        2.30528        0.65185
H         -4.92154        1.40492        1.44402
H         -2.39155        0.28676        0.36272
