36
2sa1dma1eda_180.log	Energy: -1083069.3332765
S          1.03539        0.83993        0.31649
O          0.81187        1.05532       -1.14163
O          0.03433        1.51791        1.14330
O          1.17285       -0.62778        0.61267
O          2.43324        1.44546        0.68090
H          3.18589        0.74260        0.42575
S         -1.86815       -2.20019       -0.13806
O         -2.53179       -3.45739       -0.37717
O         -2.09005       -1.07291       -1.02091
O         -2.31580       -1.64515        1.31618
O         -0.35555       -2.48700        0.04485
H         -2.26408       -2.37500        1.94969
H          0.22794       -1.63833        0.24536
N          4.11749       -0.39132        0.05415
C          5.46592       -0.29013        0.60858
C          4.09101       -0.55859       -1.40138
H          3.61486       -1.16481        0.48425
H          5.94915        0.60575        0.20903
H          5.40505       -0.19178        1.69454
H          6.08766       -1.16119        0.35994
H          4.52453        0.32982       -1.86867
H          4.65616       -1.44162       -1.72857
H          3.05368       -0.64680       -1.73041
H         -0.98543        3.18353       -0.24574
H         -2.11596        3.75849       -1.49560
H         -2.97613        3.77098        0.95136
H         -4.03791        2.96329       -0.21117
H         -2.13075        1.50798        1.50250
H         -3.79121        1.38260        1.49902
H         -0.76549        1.39212       -1.48664
H         -2.21094        0.95180       -0.77665
C         -1.93310        2.98599       -0.74723
C         -3.06388        2.89986        0.28733
N         -1.78312        1.66112       -1.40985
N         -2.97653        1.60911        0.94609
H         -2.24024        1.59200       -2.31487
