39
2sa1eda1tma_61.log	Energy: -1107744.3119719
S         -2.41755        1.43778       -0.11113
O         -3.16287        0.25705       -0.61883
O         -1.60587        1.14706        1.06732
O         -1.70771        2.16391       -1.18412
O         -3.55361        2.46397        0.43620
H         -4.07885        2.76226       -0.31862
S          2.18687       -1.54784       -0.06524
O          2.17577       -0.83661        1.21909
O          1.74988       -2.94410       -0.00731
O          1.54757       -0.76022       -1.15212
O          3.74888       -1.57815       -0.56484
H          4.19900       -2.26907       -0.06120
H          0.86316        3.17680        0.90802
H          0.96164        1.45453        1.33201
H          3.12126        2.64488        1.83813
H          3.31527        1.35893        0.64927
H          3.31880        4.23464        0.08576
H          4.34447        3.07630       -0.44806
H          0.04220        2.04313       -0.94982
H          1.64626        2.45665       -1.32046
C          1.36315        2.23102        0.68294
C          2.87655        2.34722        0.81100
N          1.04273        1.87887       -0.72438
N          3.37828        3.26748       -0.21364
H          1.26217        0.86833       -0.90809
N         -2.00694       -2.07136        0.12667
C         -1.10225       -1.93638        1.30124
H         -0.40488       -1.12102        1.12183
H         -1.70511       -1.69616        2.17687
H         -0.55238       -2.86883        1.43477
C         -3.09548       -3.04172        0.38161
H         -3.64877       -2.73033        1.26805
H         -3.76489       -3.05766       -0.47902
H         -2.66115       -4.03110        0.53914
C         -1.26006       -2.40079       -1.11843
H         -1.97290       -2.43802       -1.94274
H         -0.50943       -1.63066       -1.29825
H         -0.75119       -3.35683       -0.98756
H         -2.45991       -1.13997       -0.05160
