31
2sa1a1tma_12.log	Energy: -1023693.7170518
S         -2.20139       -0.19890       -0.25753
O         -3.55690       -0.68575       -0.35608
O         -2.08214        1.28098        0.03083
O         -1.31457       -0.92700        0.68995
O         -1.56044       -0.38593       -1.71561
H          0.80323       -1.07192        0.18657
H         -0.64410       -0.01372       -1.70467
S          1.40789        1.47373       -0.34027
O          2.64466        2.15746       -0.63334
O          0.97161        0.45882       -1.34173
O          1.36972        0.83508        1.02415
O          0.26154        2.59991       -0.32059
H          0.09990        1.16923        1.96693
H         -0.62960        2.17157       -0.37682
N         -0.84976        1.36837        2.39789
H         -1.50151        1.43259        1.56671
H         -0.83837        2.22941        2.93687
H         -1.14282        0.57895        2.96755
N          1.26646       -1.99683        0.18261
C          0.62697       -2.79700       -0.89354
H         -0.43848       -2.86918       -0.68154
H          0.77553       -2.27859       -1.84002
H          1.09336       -3.78395       -0.92073
C          2.71192       -1.77361       -0.08100
H          2.81498       -1.29830       -1.05554
H          3.10346       -1.10599        0.68575
H          3.22383       -2.73773       -0.06046
C          1.03543       -2.58591        1.52374
H          1.46820       -1.91631        2.26752
H         -0.03966       -2.66928        1.67639
H          1.51736       -3.56446        1.57103
