28
2sa1a1dma_06.log	Energy: -999032.3866622
S         -2.58401       -0.32594       -0.12180
O         -2.58514        1.05114       -0.65876
O         -2.37293       -1.36960       -1.13008
O         -1.71213       -0.47586        1.06691
O         -4.06587       -0.55698        0.50104
H         -4.71216       -0.45236       -0.21066
S          2.65444       -0.53630       -0.15677
O          2.52922       -1.87792        0.45924
O          3.87913       -0.30515       -0.89731
O          1.38739       -0.13855       -0.81454
O          2.67762        0.53009        1.10713
H          3.55609        0.49360        1.50858
N         -0.07234        2.01932       -0.06166
C          0.48374        3.08839       -0.91497
C         -0.04923        2.31118        1.38890
H         -1.04942        1.79233       -0.34534
H          1.53279        3.23860       -0.65658
H          0.40762        2.77761       -1.95670
H         -0.07813        4.01041       -0.75809
H          0.98727        2.41458        1.70976
H         -0.60627        3.23059        1.57666
H         -0.52179        1.47410        1.90233
H          0.47564        1.14866       -0.25081
N         -0.09630       -2.52885        0.22615
H         -0.63264       -1.82044        0.77405
H          0.93807       -2.36633        0.33362
H         -0.36082       -3.46856        0.50727
H         -0.38807       -2.36487       -0.74109
