33
2sa1ma1eda_165.log	Energy: -1058409.2059356
S          1.05288       -1.68102        0.49805
O          1.54926       -1.45001       -0.86101
O          1.09638       -0.49502        1.36399
O         -0.24877       -2.40354        0.52435
O          2.07337       -2.70308        1.23253
H          1.95403       -3.57975        0.84218
S         -2.65798       -0.20024       -0.62631
O         -4.02356        0.00694       -1.02656
O         -1.58148        0.48293       -1.32111
O         -2.46442        0.29198        0.90570
O         -2.40583       -1.72684       -0.53830
H         -3.15901       -0.09648        1.45712
H         -1.47455       -1.97088       -0.15123
N          3.18645        0.81669       -1.84532
H          2.80367       -0.11417       -2.00508
C          4.20206        0.73881       -0.78729
H          5.04268        0.08077       -1.03630
H          4.59244        1.73847       -0.57847
H          3.73321        0.35560        0.12293
H          3.59098        1.14667       -2.71499
H          1.54766        3.44506        0.28399
H          0.32496        3.54221       -1.01156
H         -0.64031        4.14183        1.17656
H         -1.40363        2.67852        0.54405
H         -0.53768        2.75009        2.98394
H         -0.15950        1.40842        2.13162
H          1.73768        1.48026       -1.11637
H          1.11138        1.02233        0.36084
C          0.62250        3.01256       -0.10320
C         -0.46889        3.08356        0.95842
N          0.90461        1.60567       -0.47031
N         -0.02762        2.41582        2.17610
H          0.07983        1.16756       -0.90462
