30
2sa1a1eda_155.log	Energy: -1033753.8547010
S         -0.71082       -1.71891       -0.18915
O         -1.93051       -2.51093       -0.21674
O          0.55141       -2.49602       -0.27592
O         -0.68607       -0.56698       -1.12462
O         -0.71936       -1.05803        1.29605
H         -1.81275        0.59929       -0.80250
H          0.13968       -0.59896        1.41598
S          2.72540        0.15132        0.17536
O          4.07924        0.53213        0.47967
O          1.67465        0.31185        1.16958
O          2.20240        1.06147       -1.05509
O          2.73591       -1.28354       -0.40597
H          2.87258        1.05868       -1.75349
H          1.80754       -1.76374       -0.38296
H         -2.75690        2.56748        1.21264
H         -1.72927        1.14106        1.50596
H         -0.32993        3.21375        1.28169
H          0.01359        2.04017        0.01451
H         -1.44527        4.54546       -0.31142
H         -0.32119        3.86068       -1.28037
H         -3.37683        0.68080       -0.21253
H         -2.69675        1.99429       -1.12646
C         -1.97813        1.92549        0.79019
C         -0.74709        2.72998        0.39023
N         -2.52748        1.27264       -0.42211
N         -1.11184        3.66154       -0.67982
N         -4.36153       -0.76216        0.21238
H         -4.69620       -0.82479        1.16906
H         -3.66044       -1.50064        0.09155
H         -5.14504       -0.98855       -0.39243
