31
2sa1ma1dma_30.log	Energy: -1023693.1905023
S          0.96945       -1.78747       -0.26123
O          0.37429       -1.06945        0.90470
O          0.87954       -0.73030       -1.49172
O          2.42175       -1.95192       -0.12463
O          0.18081       -2.96698       -0.63925
H         -1.76134       -2.49786       -0.19560
S         -1.36764        1.75181       -0.33191
O         -2.19944        2.88358       -0.69483
O          0.03757        2.07314       -0.03194
O         -2.01141        1.16599        1.07913
O         -1.49848        0.54681       -1.19884
H         -2.33664        1.92616        1.57866
H         -0.00402       -0.28980       -1.49914
N         -2.18163       -1.68849        0.28262
H         -1.41892       -1.37726        0.91833
C         -3.46652       -1.96085        0.95034
H         -3.80518       -1.04321        1.42960
H         -4.19958       -2.28312        0.21129
H         -3.32758       -2.74219        1.69716
H         -2.23385       -0.90921       -0.39990
N          2.48378        0.89203        0.39644
C          3.28827        1.75229       -0.49477
C          2.69306        1.11423        1.84246
H          1.47762        1.06619        0.19187
H          4.34888        1.58094       -0.30497
H          3.04543        1.49473       -1.52533
H          3.03208        2.79520       -0.30572
H          3.73751        0.91995        2.09078
H          2.43182        2.14574        2.08157
H          2.04000        0.42534        2.37779
H          2.66382       -0.10679        0.18126
