25
2sa1a1ma_03.log	Energy: -974372.5657028
S          2.13961       -0.35992       -0.30433
O          1.44405       -0.13892        1.01263
O          2.09234        0.88848       -1.09778
O          3.41631       -1.03069       -0.20432
O          1.18013       -1.42695       -1.06693
H          0.32243       -0.98831       -1.27968
S         -2.16585       -0.12995       -0.14774
O         -2.21748       -1.37200        0.65437
O         -2.04339        1.08464        0.68437
O         -1.22188       -0.15734       -1.27141
O         -3.60467       -0.04208       -0.88406
H         -4.29564       -0.13953       -0.21456
N          0.21672        2.51377       -0.05634
H          0.87247        1.86113       -0.56446
H         -0.07348        3.24581       -0.70092
C          0.90598        3.05689        1.13736
H          0.22385        3.69605        1.69779
H          1.21806        2.20560        1.74156
H          1.78339        3.62012        0.82043
H         -0.63354        1.97612        0.22232
N          0.15220       -2.37563        1.50690
H          0.18219       -2.82887        2.41504
H          0.74020       -1.48207        1.47512
H          0.52047       -2.98917        0.78043
H         -0.82225       -2.08828        1.24707
