31
2sa1ma1dma_44.log	Energy: -1023684.8542147
S          1.58773        0.87491        0.47059
O          1.30120        0.87602       -0.97124
O          0.65565        1.70568        1.25136
O          1.40148       -0.65992        0.96276
O          3.01766        1.10586        0.80005
H          3.82307       -0.22626        0.33772
S         -2.00703       -1.62756       -0.10358
O         -2.90507       -2.76428       -0.13805
O         -2.22726       -0.58596       -1.12399
O         -2.35019       -0.76512        1.27045
O         -0.57701       -1.99588        0.05963
H         -2.22356       -1.34659        2.03163
H          0.55940       -1.08334        0.59203
N          3.90855       -1.24469        0.03047
H          4.76158       -1.67036        0.38471
C          3.77071       -1.35254       -1.44653
H          3.71731       -2.40233       -1.73311
H          2.85425       -0.83076       -1.72749
H          4.62821       -0.87162       -1.91551
H          3.08502       -1.65020        0.49636
N         -1.61348        1.92956       -0.33951
C         -2.83104        2.34887        0.38471
C         -1.22960        2.80621       -1.46573
H         -0.81252        1.86763        0.32437
H         -3.66377        2.39525       -0.31860
H         -3.04173        1.60290        1.15031
H         -2.66541        3.32821        0.83668
H         -2.02926        2.80404       -2.20792
H         -1.06640        3.81881       -1.09273
H         -0.30810        2.41241       -1.89381
H         -1.76677        0.95416       -0.69587
