31
2sa1ma1dma_47.log	Energy: -1023684.5979712
S         -0.54581       -1.72191        0.14794
O         -1.79081       -2.46204        0.16175
O         -0.51292       -0.64268       -0.89452
O         -0.57079       -0.91286        1.56836
O          0.71492       -2.48692        0.15193
H          0.30092       -0.48540        1.67796
H          2.15582       -1.68786        0.10669
S          2.51938        0.41232       -0.14943
O          3.69511        1.21920       -0.27507
O          2.95637       -1.08109        0.06277
O          1.52530        0.75379        0.88612
O          1.75710        0.40843       -1.52995
H         -0.39529        1.17740        0.36387
H          0.86883       -0.05955       -1.40586
N         -3.43854        0.19584        0.09597
H         -3.14601       -0.72066        0.43830
C         -3.72636        0.08341       -1.34342
H         -4.51528       -0.64204       -1.56831
H         -4.02679        1.05930       -1.73605
H         -2.81228       -0.23511       -1.84830
H         -4.28052        0.44350        0.60721
N         -1.20182        1.81106        0.35864
C         -1.12385        2.64112       -0.85971
C         -1.21474        2.56913        1.62406
H         -2.07471        1.17936        0.30086
H         -0.20876        3.23531       -0.84196
H         -1.11407        1.97652       -1.72361
H         -1.99513        3.29690       -0.90393
H         -0.28399        3.12917        1.72369
H         -2.06708        3.25072        1.62803
H         -1.30489        1.85885        2.44634
