37
2sa1dma1tma_58.log	Energy: -1072992.8298164
S          0.19995       -1.52218       -0.34348
O          1.40912       -2.26907       -0.63258
O         -0.99388       -2.33901       -0.00782
O          0.36987       -0.41614        0.63687
O         -0.16019       -0.78284       -1.74619
H          1.09370        0.92302        0.07625
H         -1.06469       -0.41472       -1.66015
S         -3.31336        0.19943        0.19245
O         -4.71591        0.51768        0.22985
O         -2.53708        0.42847       -1.01767
O         -2.55760        1.11686        1.29261
O         -3.11551       -1.24178        0.71776
H         -3.07322        1.10420        2.11179
H         -2.20368       -1.67640        0.44212
N          3.63945       -0.39862        0.42347
C          3.50937       -0.54570        1.86754
C          5.00731       -0.59312       -0.03495
H          3.03566       -1.09061       -0.01856
H          4.04533        0.26729        2.37466
H          2.45174       -0.49092        2.13759
H          3.91543       -1.49795        2.24596
H          5.64782        0.20637        0.35655
H          5.44200       -1.55507        0.28333
H          5.04311       -0.54889       -1.12760
N          1.31986        1.88571       -0.29744
C          0.01273        2.57355       -0.43984
H         -0.61152        2.01037       -1.13244
H         -0.48381        2.59129        0.53012
H          0.17908        3.58785       -0.80942
C          2.20028        2.55219        0.69073
H          1.68555        2.58742        1.65157
H          3.10829        1.95358        0.77331
H          2.42205        3.56545        0.34729
C          2.00241        1.70548       -1.60386
H          2.93589        1.17519       -1.41515
H          1.36014        1.10254       -2.24592
H          2.18727        2.68677       -2.04738
