28
2sa1a1dma_66.log	Energy: -999011.2845040
S          0.54420       -1.12988       -0.19942
O         -0.71323       -1.87095       -0.43208
O          1.75092       -1.82491       -0.66656
O          0.48363        0.17716       -1.14096
O          0.66954       -0.63437        1.19242
H         -0.39737        0.60211       -1.03966
H          2.36849       -0.80291        1.71490
S         -3.16885        0.52511       -0.03328
O         -4.52483        0.92215       -0.30412
O         -2.05636        1.14796       -0.72875
O         -2.84902        0.80271        1.52126
O         -3.08859       -1.02624       -0.14946
H         -3.62101        0.55180        2.04853
H         -2.12295       -1.36051       -0.22277
N          4.01672        1.30087        0.12862
C          2.91385        2.20140        0.49523
C          3.97744        0.92267       -1.29203
H          4.90006        1.76351        0.32340
H          1.96427        1.68021        0.35011
H          3.00380        2.47799        1.54880
H          2.90373        3.11479       -0.11374
H          3.06156        0.35969       -1.48796
H          3.99453        1.79817       -1.95424
H          4.83470        0.28555       -1.52398
N          3.34409       -1.00507        1.40848
H          3.18940       -1.67138        0.63730
H          3.91620       -1.39592        2.14981
H          3.74923       -0.08973        0.97971
