25
2sa1a1ma_58.log	Energy: -974350.6930257
S          3.27752        0.04342       -0.01073
O          2.51178        0.05233        1.22195
O          4.69641       -0.19557       -0.00139
O          2.63297       -0.92619       -1.04708
O          3.00830        1.50115       -0.64331
H          1.61923       -1.00152       -0.92823
H          3.63493        1.64435       -1.36692
S         -0.76262       -0.40383        0.14362
O          0.12840       -1.20493       -0.72301
O         -2.11908       -0.93360        0.28153
O         -0.16548       -0.48152        1.62830
O         -0.75087        1.03635       -0.24062
H          0.79266       -0.26501        1.59549
H         -2.16076        1.69304        0.04763
N         -4.56831       -0.04736       -0.90405
H         -4.98358        0.01259       -1.82830
C         -5.50880       -0.64221        0.05550
H         -5.89485       -1.61528       -0.26641
H         -4.99039       -0.78400        1.00661
H         -6.35375        0.03365        0.21357
H         -3.73665       -0.63777       -0.96294
N         -3.17067        1.99054        0.23783
H         -3.32758        1.95642        1.24229
H         -3.81476        1.26228       -0.26017
H         -3.33670        2.93462       -0.09932
