36
2sa1dma1eda_160.log	Energy: -1083074.6419627
S         -2.08703        0.15113       -0.90751
O         -3.36819        0.19220       -1.63906
O         -0.89998        0.49225       -1.70162
O         -2.17194        0.91660        0.37102
O         -1.96541       -1.39404       -0.48814
H         -3.74780        0.78780        0.83352
H         -1.05615       -1.57996       -0.12554
S          1.67384       -1.01302        0.18368
O          2.95058       -1.78350        0.12032
O          0.49366       -1.86627        0.38504
O          1.78798        0.11655        1.12088
O          1.57340       -0.39845       -1.29459
H          4.24898        0.48589        1.66098
H          0.66050       -0.03368       -1.45123
N         -4.74766        0.46456        0.68112
C         -5.73124        1.47598        1.10334
C         -4.90580       -0.87270        1.29482
H         -4.70783        0.36105       -0.35146
H         -5.64783        1.62843        2.18040
H         -5.51884        2.41083        0.58462
H         -6.73853        1.13584        0.85680
H         -4.80329       -0.78025        2.37691
H         -5.88774       -1.27691        1.04382
H         -4.11851       -1.51835        0.90190
H          3.53468        0.98967       -1.10053
H          4.78032        2.22851       -1.26185
H          5.68691       -0.13213       -0.80722
H          6.23337        1.11886        0.34706
H          4.05002       -0.91453        0.72184
H          5.46792       -0.66493        1.66058
H          3.78821        3.26745        0.48903
H          2.75348        1.99386        0.72486
C          4.30109        1.54726       -0.55276
C          5.36793        0.57312       -0.03734
N          3.72379        2.26349        0.58197
N          4.77248       -0.19406        1.08802
