37
2sa1dma1tma_20.log	Energy: -1073013.2429693
S          0.17925       -1.66794        0.08081
O         -0.77143       -2.65609       -0.43494
O          0.79059       -0.84743       -1.05462
O         -0.59371       -0.66487        0.96338
O          1.29462       -2.24425        0.88554
H          2.69973       -1.41946        0.58469
S          0.09446        2.41614       -0.06027
O          0.64004        3.74039        0.07061
O         -1.33233        2.23509       -0.30054
O          0.89559        1.68766       -1.21427
O          0.49272        1.59110        1.22717
H          0.71240        0.68687       -1.20212
H          0.04383        0.66087        1.19777
N          3.30227       -0.78169       -0.00607
C          4.44358       -1.52404       -0.57193
C          3.64897        0.45375        0.72943
H          2.59899       -0.57507       -0.73900
H          5.11286       -1.82398        0.23572
H          4.06245       -2.40969       -1.08043
H          4.98051       -0.88858       -1.27798
H          4.29995        0.19710        1.56656
H          4.15782        1.14532        0.05652
H          2.72850        0.91138        1.09497
N         -3.09595       -0.55085        0.05263
C         -3.70220       -1.87005        0.35698
H         -3.04706       -2.64207       -0.04678
H         -3.77059       -1.98339        1.43951
H         -4.69862       -1.91760       -0.08895
C         -3.83412        0.56775        0.68607
H         -3.89128        0.38593        1.76001
H         -3.28973        1.49245        0.49571
H         -4.84049        0.61659        0.26312
C         -2.92985       -0.35018       -1.41140
H         -2.43475        0.60838       -1.56752
H         -2.30746       -1.16106       -1.79178
H         -3.91439       -0.36009       -1.88534
H         -2.11321       -0.56355        0.45719
