31
2sa1a1tma_16.log	Energy: -1023688.2595580
S          2.45866       -0.04367       -0.14102
O          1.60318        0.73720        0.76313
O          3.89303        0.01519        0.08075
O          1.93494       -1.43966       -0.29346
O          2.17907        0.65660       -1.59398
H          2.88813        0.39034       -2.19453
S         -1.84776       -1.25851       -0.34306
O         -3.00386       -2.08859       -0.08581
O         -1.91081       -0.29939       -1.44878
O         -1.34655       -0.53893        0.90603
O         -0.66097       -2.31274       -0.66240
H         -0.23982       -1.34223        1.70015
H          0.18788       -1.84915       -0.83525
N          0.60006       -1.92245        2.01893
H          0.30962       -2.87857        2.20639
H          1.04212       -1.50906        2.83523
H          1.25940       -1.89194        1.20287
N         -1.11024        2.12112        0.26145
C         -0.45838        2.48975       -1.02273
H          0.61330        2.32763       -0.92665
H         -0.85707        1.83714       -1.79848
H         -0.67814        3.53889       -1.23486
C         -2.58311        2.30282        0.19315
H         -2.95746        1.72088       -0.64857
H         -3.02435        1.92859        1.11708
H         -2.80257        3.36508        0.06589
C         -0.51691        2.84614        1.41125
H         -1.00144        2.50265        2.32613
H          0.54794        2.61901        1.44597
H         -0.68569        3.91721        1.27959
H         -0.95881        1.09798        0.42779
