27
2sa1tma_38.log	Energy: -988153.1664566
S          0.17329       -2.10216       -0.06088
O         -1.26479       -2.23122        0.11453
O          1.00862       -3.25864       -0.18717
O          0.48319       -1.16538       -1.29017
O          0.61713       -1.20989        1.19082
H         -0.14519       -0.39724       -1.29600
H          1.56635       -1.00549        1.13253
S         -2.34869        1.07427       -0.12912
O         -1.28538        0.83181       -1.08947
O         -3.36560        2.05398       -0.37732
O         -3.06771       -0.27601        0.22493
O         -1.56096        1.44076        1.22040
H         -2.42388       -1.03647        0.22298
H         -2.18582        1.78340        1.87708
N          3.30968        1.61926        0.29899
C          1.91741        1.91213        0.58953
H          1.70240        1.70646        1.64278
H          1.71572        2.97087        0.40621
H          1.21553        1.32376       -0.02978
C          3.63747        1.93310       -1.08126
H          3.43174        2.98889       -1.27743
H          4.70172        1.75518       -1.25988
H          3.05706        1.32603       -1.80210
C          3.64856        0.24997        0.61850
H          4.71569        0.07410        0.45796
H          3.44333        0.05291        1.67786
H          3.10710       -0.48543       -0.01802
