37
2sa1dma1tma_07.log	Energy: -1073016.8454446
S         -1.23050        1.93972       -0.38162
O         -0.07439        1.38666       -1.13389
O         -2.48172        1.21513       -0.69776
O         -0.97351        2.13610        1.04130
O         -1.44155        3.44677       -0.94936
H         -1.72833        3.38338       -1.87061
S          0.69738       -1.98805       -0.58520
O          0.28627       -1.53086        0.78100
O          2.02544       -1.40971       -0.92073
O          0.53876       -3.40686       -0.82594
O         -0.36155       -1.28542       -1.58428
H         -0.23787       -0.30463       -1.54790
N         -2.37688       -1.11132        0.77638
C         -2.89665       -0.64438        2.07796
C         -2.97377       -2.36348        0.26603
H         -2.50276       -0.34166        0.08697
H         -2.67653       -1.39153        2.84203
H         -2.40743        0.30127        2.31596
H         -3.97443       -0.49174        2.00237
H         -2.78921       -3.16443        0.98319
H         -4.04656       -2.22282        0.12464
H         -2.49315       -2.60512       -0.68217
H         -1.33452       -1.25231        0.84475
N          2.82061        0.64442        0.54441
C          2.00154        0.93426        1.74939
H          1.05462        1.38037        1.44292
H          1.80364       -0.00745        2.26035
H          2.55876        1.62074        2.39224
C          4.12494        0.03881        0.89984
H          3.94121       -0.86393        1.48247
H          4.64895       -0.22985       -0.01749
H          4.71264        0.75360        1.48042
C          2.97572        1.83832       -0.32227
H          3.56199        1.55817       -1.19842
H          1.98211        2.15964       -0.63596
H          3.48619        2.62489        0.23860
H          2.33179       -0.10055       -0.02919
