33
2sa1ma1eda_115.log	Energy: -1058416.0302015
S         -0.80125       -2.05559       -0.07915
O          0.02620       -2.47502       -1.19897
O         -0.15351       -1.00232        0.76109
O         -2.20547       -1.71775       -0.37860
O         -0.87317       -3.37553        0.86094
H         -1.61612       -3.27612        1.47166
S         -2.06460        1.69393       -0.04343
O         -2.61650        2.99827        0.18206
O         -1.02953        1.51088       -1.06183
O         -1.47621        1.17132        1.33275
O         -3.25011        0.70733       -0.34995
H         -0.99024        0.30345        1.18631
H         -2.90133       -0.22343       -0.45804
N          2.81536       -1.68121       -0.75341
H          1.99777       -2.19725       -1.08562
C          3.10622       -2.07687        0.63107
H          3.34769       -3.14051        0.73839
H          3.94736       -1.49162        1.01551
H          2.22538       -1.86435        1.24171
H          3.59276       -1.91081       -1.36445
H          1.15409        2.22644        0.72530
H          1.67117        0.64344        1.32397
H          3.45437        2.38344        1.67634
H          4.00432        1.09785        0.59529
H          3.13680        3.76239       -0.26525
H          4.54752        2.99829       -0.58521
H          0.65607        0.78022       -0.96058
H          2.09900        1.48404       -1.43551
C          1.87839        1.41943        0.58654
C          3.30761        1.93841        0.68361
N          1.66563        0.84337       -0.76208
N          3.55746        2.85336       -0.42936
H          2.13105       -0.12066       -0.83196
