30
2sa1a1eda_153.log	Energy: -1033752.3448254
S         -2.24659        1.19607       -0.24521
O         -2.31369        1.96194       -1.47799
O         -3.01625       -0.05407       -0.17346
O         -0.84410        0.96164        0.23895
O         -2.91789        2.12552        0.91202
H         -2.92373        3.03312        0.58031
S          2.49303        0.92830       -0.21958
O          3.68424        1.26273       -0.95580
O          2.16878       -0.44759        0.10282
O          2.55919        1.64740        1.23009
O          1.29139        1.63546       -0.91090
H          2.94383        2.52927        1.12367
H          0.38603        1.39816       -0.47736
H         -1.05774       -2.36924       -1.64716
H          0.06773       -1.22241       -0.88443
H          1.24093       -3.34591       -1.46883
H          1.23445       -3.05287        0.26666
H         -0.45474       -4.99200       -1.13932
H          0.49208       -5.22356        0.17095
H         -2.08499       -1.46284        0.25660
H         -1.62558       -3.07013        0.62776
C         -0.42338       -2.18843       -0.77490
C          0.59394       -3.30358       -0.58398
N         -1.29794       -2.12338        0.42094
N         -0.11149       -4.55384       -0.29072
H         -0.74740       -1.74733        1.25251
N          0.19502       -0.83304        2.38315
H          0.23325       -0.97752        3.38615
H         -0.20988        0.08413        2.19952
H          1.14674       -0.79126        2.02355
