25
2sa1a1ma_22.log	Energy: -974366.7484767
S          1.53393        0.34879        0.22440
O          1.59220        1.61686       -0.53690
O          0.53083        0.44868        1.32067
O          1.29921       -0.83633       -0.64353
O          2.92118        0.12523        0.91886
H          3.51314       -0.49293        0.33913
S         -2.11750       -1.15959       -0.05280
O         -3.32643       -1.92817       -0.04768
O         -2.18034        0.25259       -0.45270
O         -1.47416       -1.23111        1.38510
O         -1.07860       -1.89025       -0.98041
H         -0.67120       -0.62928        1.44277
H         -0.17145       -1.46373       -0.91926
N         -0.86229        2.58141        0.09811
H         -0.77583        2.71175        1.10515
H          0.10934        2.38546       -0.25015
C         -1.51900        3.71626       -0.58253
H         -1.58302        3.48971       -1.64602
H         -2.52246        3.85094       -0.17958
H         -0.93171        4.62216       -0.43444
H         -1.38429        1.68984       -0.04428
N          4.23330       -1.52896       -0.63389
H          3.42818       -1.87408       -1.15265
H          4.68116       -2.31491       -0.17436
H          4.89115       -1.12677       -1.29342
