39
2sa1eda1tma_42.log	Energy: -1107747.4087813
S          1.83401       -1.61240       -0.39110
O          1.38650       -2.87591       -0.98666
O          2.14209       -0.55946       -1.38532
O          1.01117       -1.12733        0.72551
O          3.26310       -1.94013        0.34355
H          3.80516       -2.43788       -0.28292
S         -2.17753        1.59052       -0.29561
O         -3.20865        0.84489       -1.02409
O         -1.36772        0.77818        0.62587
O         -1.35913        2.48211       -1.14731
O         -2.97819        2.58368        0.73039
H         -3.57945        3.12645        0.20308
H          1.07981        2.95491        1.17318
H          0.98516        1.17918        1.25478
H          3.17972        2.01206        2.16736
H          3.39580        0.99150        0.74373
H          3.65335        3.90644        0.81482
H          4.66007        2.79828        0.15547
H          0.31933        2.18854       -0.90966
H          1.95649        2.62559       -1.08836
C          1.51762        2.01994        0.81229
C          3.01407        1.95889        1.08393
N          1.30575        1.96250       -0.65649
N          3.68653        3.01824        0.32596
H          1.54487        1.00767       -1.00619
N         -1.75378       -2.02817        0.48997
C         -1.12141       -3.20422        1.14311
H         -0.19401       -3.43795        0.62229
H         -0.91005       -2.95525        2.18282
H         -1.82008       -4.04203        1.08744
C         -3.04717       -1.67788        1.13326
H         -2.85847       -1.40687        2.17186
H         -3.48506       -0.83379        0.60218
H         -3.70504       -2.54834        1.08158
C         -1.91661       -2.23869       -0.97654
H         -2.33813       -1.32865       -1.40580
H         -0.93712       -2.46141       -1.40178
H         -2.59594       -3.08055       -1.12861
H         -1.12200       -1.21242        0.60191
