39
2sa1eda1tma_34.log	Energy: -1107749.6081895
S          1.54242        1.89152       -0.27894
O          0.68019        3.07161       -0.47970
O          1.20730        1.14887        0.95299
O          1.70471        1.01660       -1.44833
O          3.04445        2.48719       -0.06654
H          2.95835        3.35457        0.35047
S         -1.08107       -1.34567       -1.21520
O         -1.57834       -2.67393       -1.50802
O         -1.82266       -0.20461       -1.79786
O         -0.84153       -1.09165        0.24839
O          0.40387       -1.31643       -1.85835
H          0.87247       -1.23155        0.63460
H          0.78281       -0.40393       -1.80642
H         -2.86026        2.65168        1.61362
H         -3.52999        2.67043       -0.04164
H         -4.75076        1.09703        1.46145
H         -4.01752        0.26511        0.08426
H         -3.68360       -0.58043        2.54743
H         -2.42154       -0.65883        1.49906
H         -1.07304        2.51011       -0.06509
H         -1.14899        1.13683        0.83184
C         -3.01501        2.06368        0.70666
C         -3.79604        0.79217        1.02339
N         -1.68252        1.70899        0.16434
N         -3.05619       -0.02351        1.98141
H         -1.76832        1.10586       -0.68918
N          1.64770       -1.81487        1.02435
C          2.93140       -1.45049        0.37408
H          2.81183       -1.55006       -0.70381
H          3.16773       -0.41757        0.62072
H          3.70901       -2.12497        0.73995
C          1.66454       -1.53567        2.48077
H          1.86121       -0.47295        2.61817
H          0.68519       -1.78289        2.89122
H          2.43826       -2.14450        2.95371
C          1.26873       -3.22104        0.72792
H          0.28238       -3.41043        1.14916
H          1.21917       -3.34493       -0.35379
H          2.01532       -3.88936        1.16222
