31
2sa1ma1dma_22.log	Energy: -1023693.7879980
S          2.13364       -0.05098       -0.42049
O          1.35324       -1.11800       -1.07561
O          2.27452        1.17993       -1.18666
O          1.69377        0.16475        0.98865
O          3.62026       -0.67051       -0.19975
H          4.03297       -0.77911       -1.06787
S         -2.23729       -0.35534       -0.53895
O         -3.60962       -0.75124       -0.74673
O         -1.82502        0.94912       -1.11993
O         -1.78309       -0.40870        0.89625
O         -1.35328       -1.47909       -1.28738
H         -0.74875       -1.47226        1.37769
H         -0.41511       -1.19035       -1.35114
N          0.10832       -1.99355        1.74732
H          0.88285       -1.32457        1.56156
C          0.30960       -3.29925        1.07499
H          1.17745       -3.80070        1.50365
H         -0.58551       -3.90661        1.20461
H          0.47776       -3.10702        0.01750
H          0.00444       -2.09919        2.75390
N         -0.24882        2.28525        0.58420
C          0.37866        3.46569       -0.04979
C         -1.09729        2.59759        1.75430
H         -0.84585        1.77797       -0.12822
H          0.98991        3.98988        0.68697
H          1.00565        3.11808       -0.86978
H         -0.40868        4.12446       -0.41853
H         -0.48489        3.04441        2.53962
H         -1.87498        3.29744        1.44575
H         -1.55740        1.66949        2.09310
H          0.47998        1.60308        0.85383
