33
2sa1ma1eda_64.log	Energy: -1058426.0309705
S          1.28244        1.85645       -0.37902
O          1.89126        0.69392       -1.05406
O          0.17644        2.48315       -1.09151
O          0.98589        1.56854        1.05327
O          2.47223        2.95676       -0.24666
H          2.69789        3.26418       -1.13562
S         -0.27943       -2.26179       -0.45388
O         -0.50771       -3.66810       -0.68724
O         -1.30527       -1.32407       -0.98369
O          0.00268       -1.89850        0.97737
O          1.08618       -1.91713       -1.24457
H          1.39207       -1.36966        1.43251
H          1.20962       -0.94302       -1.30270
N          2.23954       -0.80964        1.76855
H          1.96221        0.17622        1.58347
C          3.47937       -1.19305        1.05281
H          4.31652       -0.60403        1.42788
H          3.66247       -2.25629        1.20467
H          3.32841       -0.99122       -0.00541
H          2.32714       -0.93887        2.77389
H         -2.73815        2.53298        0.52718
H         -2.15802        1.81093       -0.98372
H         -4.65882        1.55974       -0.77610
H         -3.84259       -0.00843       -0.78177
H         -5.01905        1.29978        1.55078
H         -5.12495       -0.26265        1.07357
H         -0.86842        1.11401        1.01653
H         -2.28104        0.34237        1.54643
C         -2.64351        1.59799       -0.03150
C         -3.99115        0.90668       -0.20048
N         -1.76139        0.68351        0.73214
N         -4.50704        0.53807        1.11978
H         -1.53308       -0.15043        0.12322
