28
2sa1a1dma_18.log	Energy: -999031.6735542
S          2.75180       -0.40414       -0.08922
O          3.85077       -1.07518       -0.75707
O          2.99998        0.93236        0.44717
O          1.44172       -0.45343       -0.82576
O          2.34582       -1.36746        1.19790
H          3.15991       -1.58977        1.66906
S         -2.70079       -0.23888       -0.06538
O         -2.69097       -1.40386       -0.97968
O         -1.80664       -0.45525        1.09286
O         -2.51141        1.06855       -0.70694
O         -4.21598       -0.14167        0.49987
H         -4.52498       -1.03559        0.69800
N          0.07073        1.88338       -0.12350
C          0.14577        2.14158        1.33425
C          0.68896        2.93580       -0.95773
H          0.55439        0.98667       -0.33458
H         -0.36175        3.08290        1.55088
H         -0.35882        1.31994        1.84243
H          1.19641        2.18764        1.62044
H          0.19214        3.88753       -0.76400
H          1.74860        2.99594       -0.70676
H          0.57219        2.66431       -2.00683
H         -0.92276        1.72736       -0.39090
N         -0.25886       -2.41525       -0.17158
H         -0.47173       -2.12136        0.78606
H          0.46834       -1.74043       -0.52878
H          0.08236       -3.37082       -0.20574
H         -1.14819       -2.27964       -0.69625
