37
2sa1dma1tma_28.log	Energy: -1073011.5287828
S          3.00028       -0.98270        0.43953
O          3.84629       -2.01617        0.98514
O          1.66322       -0.81038        1.10240
O          3.63902        0.35688        0.29842
O          2.64649       -1.47081       -1.06253
H          2.53373        1.48811        0.14686
H          1.91517       -0.92552       -1.41707
S         -0.88956       -0.27408       -0.94722
O         -1.92489       -0.77030       -1.84759
O          0.36896        0.19295       -1.58185
O         -1.41735        0.79606       -0.02733
O         -0.51999       -1.50546       -0.01980
H         -2.87477        0.32920        0.34594
H          0.35162       -1.31688        0.47265
N          1.67644        2.10243        0.00052
C          2.02796        3.29797       -0.78623
C          1.06048        2.37793        1.31434
H          1.04797        1.49476       -0.55853
H          2.74020        3.90272       -0.22288
H          2.48212        2.97805       -1.72416
H          1.12695        3.87872       -0.99182
H          1.74177        2.99633        1.90154
H          0.10687        2.88631        1.16824
H          0.90404        1.41959        1.80857
N         -3.85706       -0.04301        0.55690
C         -3.72977       -1.51368        0.74002
H         -3.35368       -1.94282       -0.18858
H         -3.00801       -1.70686        1.53355
H         -4.70742       -1.92781        0.99732
C         -4.32386        0.62880        1.78985
H         -3.64064        0.38429        2.60370
H         -4.32530        1.70717        1.62752
H         -5.33257        0.28742        2.03350
C         -4.69620        0.28741       -0.62192
H         -4.74163        1.37169       -0.72898
H         -4.21947       -0.14552       -1.50181
H         -5.69971       -0.11915       -0.47574
