27
2sa1tma_17.log	Energy: -988183.4840244
S          1.44105        1.60295        0.03952
O          2.36379        2.67955        0.32273
O          1.92698        0.49128       -0.79599
O          0.68089        1.09182        1.21344
O          0.26745        2.25187       -0.94974
H          0.07770        3.15460       -0.65882
S         -2.36341       -0.06399        0.01961
O         -3.64539        0.32798       -0.49656
O         -2.18113       -1.38012        0.60269
O         -1.23850       -0.00889       -1.12917
O         -1.89299        1.06832        1.00473
H         -0.95078        0.91229       -1.31159
H         -0.89993        1.03152        1.18359
N          1.28222       -2.02308       -0.04224
C          2.71214       -2.36678       -0.25022
H          2.96130       -2.20554       -1.29876
H          3.32283       -1.70809        0.36618
H          2.87165       -3.41101        0.02548
C          0.89654       -2.12016        1.39178
H          1.49252       -1.40705        1.96041
H         -0.16142       -1.87563        1.48287
H          1.08224       -3.14112        1.73272
C          0.38852       -2.83064       -0.91261
H         -0.64414       -2.55259       -0.70669
H          0.63182       -2.61979       -1.95407
H          0.54986       -3.88833       -0.69344
H          1.21661       -1.02001       -0.32921
