21
2sa1ma_07.log	Energy: -938862.8539852
S         -1.79124       -0.86493       -0.11342
O         -2.85083       -1.65105       -0.70068
O         -1.02457        0.02529       -1.01988
O         -2.55853        0.30770        0.80459
O         -0.91594       -1.56176        0.84727
H         -3.26829       -0.10779        1.31218
H          0.72096       -1.54950        0.85138
S          2.19778       -0.22088        0.02631
O          1.71890       -1.51968        0.76696
O          3.62069       -0.27802       -0.11135
O          1.55480       -0.32419       -1.41087
O          1.60144        0.94208        0.70242
H          0.56064       -0.23071       -1.35540
H          0.18400        1.75595        0.66454
N         -0.65755        2.38423        0.69100
H         -1.47293        1.77324        0.86323
C         -0.79537        3.11234       -0.59693
H         -1.63411        3.80515       -0.53681
H          0.13013        3.65144       -0.79559
H         -0.97418        2.36860       -1.37146
H         -0.54360        3.01993        1.47844
