18
2sa1a_02.log	Energy: -914201.6199560
S         -2.02870       -0.33178        0.09981
O         -3.06317       -1.23168        0.55557
O         -2.46208        0.81848       -0.72005
O         -1.02073        0.10978        1.09485
O         -1.09624       -1.24763       -0.94014
H         -1.58178       -2.05826       -1.14612
S          2.15985       -0.10964        0.00358
O          3.57551       -0.27395        0.11761
O          1.61781        1.20115       -0.36982
O          1.64159       -1.16847       -1.05555
O          1.48785       -0.56166        1.35266
H          0.65679       -1.16544       -1.10538
H          0.50424       -0.37035        1.34016
N         -0.64719        2.69054       -0.09533
H         -0.81584        2.90394        0.88564
H         -0.57910        3.54676       -0.63924
H          0.23578        2.13665       -0.16691
H         -1.43249        2.06745       -0.43589
