39
2sa1eda1tma_33.log	Energy: -1107749.8899412
S          1.33467       -2.16190        0.10743
O          1.79620       -1.17953       -0.87276
O          0.92928       -1.57658        1.40715
O          0.32635       -3.11981       -0.38861
O          2.67375       -3.03259        0.40909
H          2.44452       -3.73256        1.03547
S         -0.86772        1.38245        1.19286
O         -1.87598        0.46443        1.75511
O         -0.65331        1.07150       -0.27099
O         -1.03937        2.79910        1.45668
O          0.55114        1.01474        1.86674
H          0.71593        0.03923        1.76301
H         -3.17732       -2.17485       -1.72452
H         -3.78842       -2.37500       -0.05949
H         -4.99854       -0.57946       -1.27617
H         -4.13484        0.07234        0.12426
H         -3.91783        1.16029       -2.24734
H         -2.56529        1.04304       -1.32775
H         -1.28712       -2.30723       -0.23145
H         -1.41842       -0.75211       -0.77411
C         -3.27324       -1.69969       -0.74633
C         -4.00355       -0.36696       -0.87473
N         -1.90454       -1.47423       -0.22274
N         -3.28843        0.50526       -1.80139
H         -1.92249       -1.05240        0.72668
N          1.89075        1.83238       -0.92127
C          1.48163        3.24994       -0.74240
H          0.57699        3.42787       -1.32254
H          1.25642        3.42164        0.31016
H          2.29341        3.89808       -1.07938
C          3.06332        1.49302       -0.07359
H          2.79939        1.68915        0.96511
H          3.28169        0.43481       -0.20654
H          3.90733        2.11373       -0.38349
C          2.12190        1.49825       -2.34863
H          2.35334        0.43631       -2.41876
H          1.20873        1.71316       -2.90458
H          2.94590        2.10715       -2.72710
H          1.06618        1.26679       -0.61353
