39
2sa1eda1tma_01.log	Energy: -1107755.9931485
S          0.74414       -1.76529       -0.12149
O          1.89894       -2.64287       -0.06177
O          0.75520       -0.99873        1.30557
O          0.92946       -0.64689       -1.12829
O         -0.58120       -2.37398       -0.27140
H         -2.40455       -0.21282        0.40172
S         -0.98243        1.94904        0.04211
O         -2.14941        2.80717       -0.04551
O          0.30692        2.60244        0.32377
O         -1.19793        0.77596        0.97456
O         -0.87330        1.26300       -1.41157
H          0.03445       -0.31592        1.29302
H         -0.22840        0.50109       -1.36902
H          3.88265        1.63968        1.39818
H          2.69654        0.32387        1.62977
H          5.02048       -0.58886        1.31449
H          3.89780       -1.12235        0.06451
H          6.04596        0.83381       -0.25693
H          5.56527       -0.35802       -1.26843
H          1.92122        1.95748       -0.01208
H          3.31434        1.58741       -0.94439
C          3.40596        0.77211        0.93364
C          4.43153       -0.24888        0.45381
N          2.64479        1.25080       -0.24773
N          5.23481        0.34458       -0.61858
H          2.10187        0.45574       -0.67040
N         -3.30037       -0.67684        0.10139
C         -4.36842        0.31692        0.37935
H         -4.39208        0.51460        1.45114
H         -4.12705        1.24347       -0.14346
H         -5.32668       -0.08743        0.04606
C         -3.19194       -0.97737       -1.35147
H         -3.01757       -0.04175       -1.88237
H         -2.34277       -1.64624       -1.49356
H         -4.12228       -1.44496       -1.68235
C         -3.44875       -1.91261        0.91043
H         -2.59128       -2.55446        0.70682
H         -3.46472       -1.63830        1.96593
H         -4.38480       -2.40574        0.63840
