26
2sa1eda_09.log	Energy: -998261.3692415
S         -1.78643       -0.99840        0.05208
O         -2.18605        0.00649       -0.94296
O         -1.08369       -2.18041       -0.47598
O         -1.08445       -0.40154        1.21737
O         -3.20593       -1.53020        0.59911
H         -3.05390       -2.33229        1.11828
S          2.05790       -0.78274       -0.13768
O          1.34312        0.00863       -1.13480
O          3.48992       -0.76730       -0.08629
O          1.53256       -0.34882        1.29972
O          1.57837       -2.27834       -0.26999
H          0.53152       -0.40051        1.32419
H          0.59339       -2.30887       -0.42770
H         -0.54957        4.10239       -0.85937
H         -2.02272        3.17341       -0.47180
H         -0.67833        3.65695        1.59915
H         -0.77797        1.92305        1.27913
H          1.58916        3.58189        1.02997
H          1.46538        1.96640        1.34676
H         -0.49382        2.33504       -2.36665
H          0.48875        1.79462       -1.12901
C         -0.93122        3.15404       -0.47313
C         -0.35496        2.86415        0.91433
N         -0.47822        2.06949       -1.38475
N          1.09101        2.73231        0.79872
H         -1.07871        1.21618       -1.26762
