31
2sa1ma1dma_90.log	Energy: -1023662.8906240
S          1.13338       -0.68435       -0.13476
O          1.71418        0.43886       -0.88855
O          0.03893       -1.39952       -0.81114
O          2.20795       -1.60543        0.33833
O          0.54193       -0.08564        1.22706
H          3.52776       -0.88649        0.37113
H         -0.43706        0.01517        1.16498
S         -3.11780       -0.20876        0.12685
O         -3.88769        0.94697       -0.27074
O         -2.18751       -0.15515        1.23863
O         -4.17454       -1.34886        0.55262
O         -2.45190       -0.85823       -1.12602
H         -4.99694       -1.19640        0.06662
H         -1.45713       -1.00550       -0.99777
N         -0.96559        1.84903       -0.86197
H         -0.07329        1.71151       -1.32603
C         -0.87436        2.88427        0.16052
H         -0.60300        3.88242       -0.21646
H         -1.83573        2.96388        0.67592
H         -0.12596        2.58526        0.90053
H         -1.66405        2.08416       -1.55795
N          4.43417       -0.28517        0.37732
C          4.14508        0.95431        1.14118
C          4.83446       -0.04050       -1.02981
H          5.15154       -0.82730        0.85641
H          3.33075        1.47030        0.63168
H          3.82332        0.67925        2.14573
H          5.03852        1.58003        1.18268
H          3.99519        0.45031       -1.52337
H          5.72955        0.58383       -1.05747
H          5.02546       -1.00019       -1.51018
