28
2sa1a1dma_57.log	Energy: -999018.0367757
S          2.59913        0.33718       -0.48015
O          3.97822        0.66397       -0.76902
O          1.54496        0.83133       -1.35492
O          2.42557       -1.22262       -0.41917
O          2.32982        0.81508        0.99439
H          3.26680       -1.62632        0.01493
H          1.34343        0.82160        1.20637
S         -1.33876        0.61832        0.63317
O         -2.63913        1.13651        1.04709
O         -0.20445        0.92387        1.52049
O         -1.40062       -0.84551        0.30790
O         -1.05972        1.35462       -0.76823
H         -2.76220       -1.16403       -0.21689
H         -0.13009        1.18042       -1.04841
N         -3.78460       -1.29031       -0.58044
C         -4.04693       -0.21399       -1.56885
C         -4.69528       -1.26142        0.58956
H         -3.83140       -2.19894       -1.03876
H         -3.94978        0.74127       -1.05220
H         -3.29346       -0.27010       -2.35422
H         -5.04853       -0.33116       -1.98668
H         -4.53898       -0.30947        1.09800
H         -5.73005       -1.36526        0.25746
H         -4.42783       -2.07751        1.26095
N          4.70832       -1.99881        0.65059
H          4.71291       -1.99123        1.66554
H          5.27506       -1.21751        0.32731
H          5.13833       -2.86152        0.33469
