34
2sa1ma1tma_05.log	Energy: -1048355.9197611
S          1.26570       -1.57166       -0.66296
O          0.45035       -2.77934       -0.82022
O          0.87647       -0.86740        0.63107
O          2.70728       -1.68442       -0.81188
O          0.83607       -0.52394       -1.80663
H         -0.12124       -0.29143       -1.69163
S         -2.09713        1.09909       -0.25220
O         -1.72388        0.04266       -1.22812
O         -2.83563        0.51623        0.89070
O         -1.01599        2.01373        0.09792
O         -3.15334        2.06168       -1.02381
H         -3.91281        1.52693       -1.29119
N         -1.60110       -1.95493        0.96610
H         -2.28340       -1.17590        1.04958
H         -1.60599       -2.29080       -0.00069
C         -1.78937       -3.05238        1.93259
H         -1.01048       -3.79696        1.76920
H         -1.71301       -2.65080        2.94271
H         -2.77127       -3.50384        1.79108
H         -0.65248       -1.51729        1.04653
N          2.08659        1.54384        0.65534
C          3.44571        1.01299        0.93472
H          3.43312        0.51566        1.90474
H          3.69590        0.27990        0.16637
H          4.15847        1.84057        0.94180
C          2.02278        2.20663       -0.67505
H          2.32300        1.48393       -1.43310
H          0.99198        2.51178       -0.85127
H          2.69526        3.06786       -0.66792
C          1.59566        2.43242        1.73705
H          0.56497        2.70601        1.51255
H          1.63766        1.88874        2.68167
H          2.23554        3.31648        1.78815
H          1.45986        0.69631        0.62577
