39
2sa1eda1tma_111.log	Energy: -1107730.6659314
S         -2.07672       -0.96495       -0.50270
O         -3.40057       -1.58254       -0.58167
O         -1.00982       -1.60031       -1.28988
O         -2.14960        0.51329       -0.76314
O         -1.68111       -1.10391        1.04713
H         -3.46800        0.99009       -0.24058
H         -0.72869       -0.85208        1.17715
S          1.97426       -0.98431        0.42549
O          3.14499       -1.53324        1.12747
O          0.89740       -0.47636        1.28594
O          2.40850        0.04871       -0.58293
O          1.40293       -2.20617       -0.41026
H          3.92255       -0.02979       -0.64536
H          0.50492       -1.98346       -0.78675
H          5.34380        2.10844       -1.58206
H          5.89054        3.06921       -0.20814
H          6.62434        0.88963        0.33427
H          5.11976        1.07702        1.26975
H          5.49148       -0.47106       -1.21039
H          4.86606       -0.97203        0.26789
H          3.59737        3.58827       -0.64817
H          3.12472        2.03976       -0.34907
C          5.17910        2.29142       -0.50344
C          5.54292        1.02551        0.26459
N          3.84137        2.73776       -0.15587
N          4.96614       -0.18416       -0.38798
N         -4.42996        1.30005        0.16697
C         -4.56697        0.62186        1.48026
H         -4.54653       -0.45488        1.31144
H         -3.71622        0.89514        2.10510
H         -5.50441        0.92992        1.95070
C         -4.39056        2.77021        0.30480
H         -3.57176        3.03898        0.97310
H         -4.21469        3.21440       -0.67552
H         -5.33872        3.13009        0.71306
C         -5.46444        0.84518       -0.79157
H         -5.30730        1.35216       -1.74432
H         -5.33837       -0.22925       -0.93011
H         -6.45644        1.08144       -0.39746
