27
2sa1tma_19.log	Energy: -988180.5611606
S          2.45448        0.16637       -0.09370
O          1.28099        1.00591        0.04908
O          2.10042       -1.19490       -0.74246
O          3.64075        0.67255       -0.73645
O          2.81822       -0.22638        1.43202
H          3.66895       -0.68843        1.43775
S         -1.34193       -1.70118       -0.14565
O         -1.30974       -0.54233       -1.05316
O         -2.36979       -2.69562       -0.37357
O          0.00940       -2.26903        0.10610
O         -1.73493       -0.94441        1.27998
H          1.20872       -1.60194       -0.39532
H         -1.83164       -1.62263        1.96158
N         -1.47561        1.93577       -0.03054
C         -2.94735        1.80363       -0.18499
H         -3.16178        1.47230       -1.20010
H         -3.29843        1.04816        0.51730
H         -3.41495        2.76994        0.01569
C         -1.10328        2.28358        1.36395
H         -1.47354        1.49661        2.01985
H         -0.01820        2.33169        1.43165
H         -1.55612        3.24492        1.61690
C         -0.89895        2.88303       -1.01757
H          0.18185        2.89902       -0.88584
H         -1.13896        2.52511       -2.01899
H         -1.32992        3.87331       -0.85482
H         -1.09258        0.99064       -0.26301
