25
2sa1a1ma_40.log	Energy: -974359.0607891
S         -1.83887       -1.03355       -0.08012
O         -0.64509       -1.84756       -0.44691
O         -1.85257       -0.66082        1.33623
O         -2.10617        0.06368       -1.02027
O         -3.09356       -2.02064       -0.33864
H         -2.98311       -2.80291        0.21916
S          2.39225       -0.30652        0.06164
O          3.73995       -0.37402        0.56231
O          1.55873        0.84913        0.34946
O          2.42180       -0.33674       -1.55411
O          1.67075       -1.62431        0.43829
H          3.02323       -1.03621       -1.84805
H          0.68320       -1.66873        0.10942
N         -0.63240        2.32261       -0.52045
H         -1.21801        1.51109       -0.81491
H         -0.73483        2.36997        0.54217
C         -1.00916        3.57037       -1.20711
H         -0.38635        4.38915       -0.84599
H         -0.87621        3.45421       -2.28278
H         -2.05601        3.78715       -0.99510
H          0.34125        2.04624       -0.67389
N         -0.77621        1.98570        2.22017
H         -1.26379        2.51429        2.93537
H          0.18343        1.84949        2.52561
H         -1.20241        1.05728        2.15842
