31
2sa1ma1dma_03.log	Energy: -1023695.0998944
S         -2.50203       -0.12663       -0.28179
O         -2.27812        1.15720       -0.98167
O         -2.25990       -1.30697       -1.13654
O         -1.83915       -0.20266        1.02686
O         -4.08280       -0.15655        0.09019
H         -4.58851       -0.10544       -0.73248
S          2.56164       -0.23416       -0.23727
O          2.42907       -1.59153       -0.80450
O          2.75322        0.83161       -1.21606
O          1.50237        0.04632        0.76749
O          3.89771       -0.26458        0.69497
H          4.66478       -0.33744        0.11102
N         -0.04190       -2.33651        0.17101
H         -0.06000       -1.53999        0.82050
H         -0.80507       -2.13072       -0.50393
C         -0.25936       -3.61931        0.86728
H         -0.24519       -4.42817        0.13755
H          0.53343       -3.76973        1.59970
H         -1.22753       -3.58909        1.36654
H          0.88148       -2.27473       -0.30462
N         -0.05812        2.24635        0.27224
C          0.72011        3.22901       -0.51229
C         -0.57619        2.75355        1.56178
H         -0.86670        1.90067       -0.28664
H          1.55515        3.58485        0.09260
H          1.11446        2.73257       -1.39817
H          0.07074        4.06163       -0.78735
H          0.26407        3.04065        2.19579
H         -1.21794        3.61614        1.37564
H         -1.15007        1.95284        2.02842
H          0.53688        1.40749        0.46109
