28
2sa1a1dma_50.log	Energy: -999018.6936589
S         -1.91798       -1.09347        0.10691
O         -2.66865       -0.47451       -0.98495
O         -0.83029       -1.99000       -0.38405
O         -1.45734       -0.16762        1.15112
O         -2.94175       -2.06132        0.90909
H         -3.32814       -2.68304        0.27731
S          2.33179       -0.69125        0.04577
O          3.66776       -0.84737        0.56244
O          1.62179        0.56127        0.23137
O          2.36368       -0.84853       -1.56475
O          1.49195       -1.90569        0.50806
H          2.86432       -1.64441       -1.79495
H          0.50261       -1.89840        0.17065
N         -0.84761        2.18342       -0.15626
C         -2.16549        2.80983        0.07773
C         -0.55336        1.94570       -1.58905
H         -0.07338        2.75380        0.26803
H         -2.93693        2.14054       -0.30636
H         -2.30491        2.94677        1.15004
H         -2.20565        3.77409       -0.43192
H         -1.31647        1.27953       -1.99404
H         -0.55717        2.90299       -2.11382
H          0.42597        1.47469       -1.66263
H         -0.85118        1.27347        0.34986
N          1.44197        3.41895        0.99397
H          1.98183        4.13055        0.51244
H          1.95898        2.54144        0.93720
H          1.39453        3.68410        1.97266
