25
2sa1a1ma_09.log	Energy: -974369.6318262
S          2.54826       -0.40342        0.03047
O          1.62067        0.02812       -1.04556
O          2.26911       -1.79553        0.45496
O          3.94835       -0.08088       -0.15048
O          1.99370        0.54487        1.26504
H          2.51610        0.35795        2.05633
S         -2.45507       -0.15618        0.14653
O         -2.13543        1.00210        1.00572
O         -1.80537       -0.08995       -1.17316
O         -2.28647       -1.45822        0.82260
O         -4.03403       -0.03581       -0.20761
H         -4.53717       -0.10613        0.61530
N         -0.07759        2.07599       -0.51717
H         -0.74614        1.77441        0.22218
H          0.55882        1.26516       -0.71322
C          0.69826        3.27647       -0.14230
H          1.35658        3.55209       -0.96583
H          0.01787        4.09604        0.08831
H          1.29900        3.02588        0.73083
H         -0.64433        2.20662       -1.35432
N         -0.13680       -2.40398       -0.61961
H         -0.92046       -2.30285        0.05862
H          0.79673       -2.28611       -0.14498
H         -0.19007       -3.28996       -1.11327
H         -0.25110       -1.62000       -1.27285
