27
2sa1tma_25.log	Energy: -988177.4533635
S         -0.88771        1.70647       -0.00022
O         -2.25854        1.20429       -0.00262
O         -0.12651        1.37226        1.22710
O         -0.12329        1.37635       -1.22653
O         -1.07598        3.31165        0.00218
H         -0.20290        3.72813        0.00308
S          2.46486       -0.63834        0.00004
O          3.81568       -1.12056        0.00101
O          1.35407       -1.58740       -0.00095
O          2.29764        0.32332        1.24344
O          2.29967        0.32359       -1.24347
H          1.37557        0.70898        1.27553
H          1.37824        0.71050       -1.27579
N         -2.20292       -2.16161       -0.00008
C         -1.49860       -1.72942        1.25152
H         -1.98224       -2.22129        2.09672
H         -0.44666       -2.00210        1.17470
H         -1.58952       -0.64775        1.33744
C         -1.49915       -1.72910       -1.25190
H         -0.44678       -2.00005       -1.17484
H         -1.98199       -2.22217       -2.09684
H         -1.59203       -0.64765       -1.33837
C         -3.62517       -1.70977        0.00030
H         -4.11732       -2.09082       -0.89507
H         -4.11721       -2.09203        0.89522
H         -3.61912       -0.61869        0.00102
H         -2.19633       -3.18206       -0.00020
