25
2sa1a1ma_02.log	Energy: -974372.5978564
S         -2.26397        0.06159        0.13646
O         -1.54551       -0.30128       -1.13324
O         -2.02898        1.49354        0.43512
O         -3.62618       -0.41478        0.22114
O         -1.47233       -0.78145        1.27947
H         -0.55250       -0.43394        1.35211
S          2.00859       -0.46940        0.10076
O          2.05375        0.31499       -1.14829
O          1.10924        0.10850        1.11063
O          1.83250       -1.91909       -0.12997
O          3.46475       -0.32266        0.79445
H          4.11169       -0.78685        0.24554
N          0.15834        2.33553       -0.87262
H         -0.12007        2.79131       -1.73862
H         -0.71645        1.98339       -0.39321
C          0.90063        3.24379        0.03132
H          1.16473        2.67268        0.92085
H          1.80513        3.59632       -0.46379
H          0.26150        4.08324        0.30415
H          0.75388        1.51513       -1.10768
N         -0.67633       -2.75209       -0.77190
H          0.33106       -2.56147       -0.55800
H         -1.15113       -3.02254        0.08878
H         -1.09636       -1.81269       -1.07272
H         -0.78094       -3.46867       -1.48366
