30
2sa1a1eda_69.log	Energy: -1033765.1703094
S         -2.35471       -0.56574       -0.17728
O         -2.07019        0.38559       -1.28014
O         -1.59380       -0.14497        1.05012
O         -3.74654       -0.87628        0.04938
O         -1.67663       -1.97006       -0.60319
H         -0.72531       -1.83454       -0.81450
S          2.00243       -0.78613       -0.36103
O          1.04260       -1.89392       -0.56770
O          1.85736        0.30626       -1.32638
O          2.07526       -0.36725        1.05553
O          3.47309       -1.42424       -0.60471
H          3.54944       -1.65936       -1.53984
H         -0.15601        4.19419       -0.41622
H         -1.64326        3.25510       -0.09926
H         -0.24678        3.40262        1.96067
H         -0.35364        1.73802        1.38415
H          2.01145        3.38358        1.46914
H          1.89245        1.73944        1.26932
H         -0.22060        2.66391       -2.15178
H          0.77874        1.88950       -1.07142
C         -0.55297        3.21162       -0.15045
C          0.06629        2.72336        1.15917
N         -0.18074        2.25063       -1.22304
N          1.51066        2.64079        1.00226
H         -0.84791        1.42726       -1.22236
N          0.02899       -1.87509        2.11944
H         -0.74115       -1.20726        1.77436
H          0.92358       -1.35865        1.99692
H         -0.12170       -2.18480        3.07429
H          0.05571       -2.66448        1.47323
