33
2sa1ma1eda_94.log	Energy: -1058418.4862233
S          1.98690       -0.93353       -0.68560
O          1.65467        0.60824       -0.97214
O          1.73000       -1.12498        0.77600
O          1.09891       -1.75619       -1.51956
O          3.42117       -1.02737       -1.00870
H          4.25523       -0.21839        0.45903
S         -1.77784        1.87329       -0.05630
O         -2.52740        2.54073        0.99523
O         -2.57699        0.90852       -0.85450
O         -1.29396        3.02173       -1.11212
O         -0.48174        1.28921        0.36126
H         -2.07349        3.52541       -1.38164
H          0.79145        0.87463       -0.53928
N          3.97845        0.15129        1.39159
H          3.04624       -0.33713        1.49967
C          3.80374        1.62595        1.35663
H          3.38943        1.96034        2.30702
H          4.76595        2.10248        1.17177
H          3.10692        1.85223        0.54943
H          4.63417       -0.15677        2.10527
H         -0.96601       -2.73035        0.95413
H         -0.93599       -0.97271        1.18660
H         -2.92800       -2.00375        2.34466
H         -3.41536       -0.88747        1.06402
H         -3.52601       -3.80723        0.92773
H         -4.66033       -2.70807        0.50077
H         -0.58327       -1.71509       -1.12923
H         -2.19358       -2.28807       -1.10503
C         -1.50161       -1.79881        0.75417
C         -2.93772       -1.85253        1.25796
N         -1.53402       -1.60604       -0.71879
N         -3.66429       -2.88925        0.51934
H         -1.89710       -0.64494       -0.92599
