39
2sa1eda1tma_28.log	Energy: -1107748.8937825
S         -2.46178        1.06452       -0.28851
O         -3.52945        0.07462       -0.12793
O         -2.70433        2.37340        0.31608
O         -1.10535        0.53175        0.00805
O         -2.32287        1.32472       -1.90843
H         -3.16717        1.67250       -2.22539
S          2.59167       -1.00981       -0.39143
O          3.17029        0.07540       -1.18814
O          1.66620       -0.55368        0.66733
O          2.04743       -2.12985       -1.18627
O          3.81518       -1.64646        0.48380
H          4.45702       -2.02163       -0.13412
H         -0.55207       -3.83662        0.72577
H         -0.03151       -2.33278        1.53213
H         -2.37450       -3.17132        2.23398
H         -2.33154       -1.51237        1.63054
H         -3.75194       -3.65554        0.48709
H         -3.69519       -2.06930        0.02010
H          0.30972       -2.27093       -0.87253
H         -1.38722       -2.47067       -1.05272
C         -0.77045       -2.77432        0.86174
C         -2.20747       -2.56021        1.34116
N         -0.62958       -2.11730       -0.45897
N         -3.13873       -2.88471        0.26039
H         -0.76333       -1.08485       -0.34735
N          1.27415        2.20138        0.58960
C          0.33676        2.85540        1.53915
H         -0.68682        2.72950        1.18602
H          0.45514        2.38704        2.51684
H          0.59102        3.91605        1.60053
C          2.68675        2.36258        1.02357
H          2.80332        1.90599        2.00647
H          3.32886        1.85323        0.30526
H          2.91797        3.42883        1.06994
C          1.08133        2.67449       -0.80761
H          1.74689        2.09656       -1.44995
H          0.04452        2.50238       -1.09043
H          1.32246        3.73885       -0.85251
H          1.08705        1.17716        0.58849
