34
2sa1ma1tma_50.log	Energy: -1048332.9347795
S         -0.48356       -1.67572        0.04517
O         -1.68668       -2.48442        0.16059
O          0.74170       -2.39275       -0.37739
O         -0.67777       -0.43464       -0.76283
O         -0.21316       -1.16436        1.55356
H         -2.16312        0.18544       -0.47744
H          0.64808       -0.69504        1.56641
S          2.99895        0.19103       -0.03155
O          4.37882        0.59039        0.04004
O          2.15790        0.20888        1.15407
O          2.22698        1.18429       -1.04552
O          2.92474       -1.18652       -0.74433
H          2.77011        1.30984       -1.83682
H          2.01352       -1.65987       -0.61759
N         -0.48113        2.26429        0.67530
H         -0.06354        2.11176        1.58833
C          0.02501        3.51808        0.11461
H          1.11677        3.54951        0.00383
H         -0.41536        3.67439       -0.87593
H         -0.28344        4.35589        0.74703
H         -0.16165        1.48334        0.10448
N         -3.16408        0.44402       -0.25300
C         -3.29200        0.34500        1.22516
H         -3.04419       -0.67395        1.52379
H         -2.58292        1.04728        1.66438
H         -4.31780        0.59253        1.50841
C         -3.39666        1.82902       -0.72753
H         -2.69059        2.47608       -0.20331
H         -3.21626        1.86766       -1.80273
H         -4.43053        2.11039       -0.51332
C         -4.01810       -0.55016       -0.94957
H         -3.85273       -0.46001       -2.02365
H         -3.72008       -1.54562       -0.61846
H         -5.06585       -0.35140       -0.71297
