31
2sa1a1tma_01.log	Energy: -1023695.3699682
S         -0.87311        1.93251       -0.12366
O         -0.85968        0.80280       -1.11953
O          0.34415        2.76190       -0.25815
O         -2.13272        2.64083       -0.06578
O         -0.75967        1.16942        1.30096
H          0.07610        0.62797        1.29161
S          1.95412       -1.18894        0.02741
O          1.43418       -0.26056        1.07877
O          3.10739       -0.55076       -0.65542
O          2.12792       -2.56164        0.45162
O          0.77124       -1.27780       -1.08106
H          0.40811       -0.37756       -1.26014
N          2.90078        2.01287        0.09696
H          3.02833        1.94779        1.10481
H          3.54050        2.69731       -0.29660
H          3.07050        1.04308       -0.29914
H          1.89845        2.29290       -0.08426
N         -2.13568       -1.36466       -0.00400
C         -1.51137       -2.03600        1.16629
H         -0.55271       -2.45926        0.86650
H         -1.35831       -1.29424        1.94876
H         -2.18522       -2.82243        1.51343
C         -3.41547       -0.69924        0.35382
H         -3.21908        0.01880        1.14998
H         -3.78733       -0.16527       -0.52051
H         -4.13313       -1.45535        0.67836
C         -2.28142       -2.29277       -1.15358
H         -2.67285       -1.73458       -2.00439
H         -1.29599       -2.69119       -1.39526
H         -2.96864       -3.09561       -0.87895
H         -1.51330       -0.59233       -0.33548
