31
2sa1a1tma_34.log	Energy: -1023675.5156753
S          0.42131       -0.46747       -0.60546
O          0.65079       -1.37948        0.51697
O         -0.27258        0.79174       -0.18577
O          1.64648       -0.16319       -1.37746
O         -0.52658       -1.17265       -1.67323
H         -1.42774       -1.25784       -1.28737
S         -3.53870       -0.01482        0.35579
O         -4.64645       -0.21633        1.25157
O         -2.95859       -1.12433       -0.37825
O         -3.99281        1.01593       -0.79975
O         -2.43189        0.76820        1.12400
H         -4.57654        1.68189       -0.40937
H         -1.53925        0.76604        0.61012
N          2.25406        2.65901       -0.49906
H          2.26420        3.67391       -0.47506
H          1.32360        2.35582       -0.21130
H          2.31897        2.37894       -1.47409
N          3.65415       -0.20147        0.43027
C          3.88552       -1.66621        0.50179
H          2.93978       -2.14343        0.76087
H          4.21364       -2.01771       -0.47688
H          4.65032       -1.87204        1.25392
C          4.84363        0.54448       -0.04264
H          5.14479        0.14890       -1.01346
H          4.55977        1.59341       -0.13694
H          5.65428        0.42055        0.67923
C          3.14913        0.33850        1.72097
H          2.93372        1.39663        1.57129
H          2.23694       -0.19959        1.98024
H          3.91633        0.19615        2.48583
H          2.89133       -0.06743       -0.28596
