33
2sa1ma1eda_120.log	Energy: -1058415.5172752
S          1.81690        0.49005       -0.77116
O          1.86680        0.80778        0.69486
O          0.90657        1.36578       -1.50875
O          3.17926        0.37313       -1.33308
O          1.27729       -1.01243       -0.85888
H          4.13762       -0.35799       -0.03028
H          0.40855       -1.12410       -0.36918
S         -2.26484       -1.38043        0.07294
O         -3.26680       -0.98108        1.05609
O         -0.87306       -1.37424        0.56850
O         -2.50740       -2.95337       -0.26238
O         -2.40072       -0.67441       -1.22762
H         -3.43061       -3.06250       -0.52710
H         -1.91519        0.91374       -1.19769
N          4.08464       -0.65267        0.97428
H          4.92317       -0.37605        1.47842
C          3.78097       -2.10114        1.09137
H          3.61160       -2.35026        2.13834
H          2.87821       -2.29172        0.51028
H          4.61391       -2.67916        0.69247
H          3.25924       -0.07059        1.26709
H         -2.69516        3.32461        0.28921
H         -3.28586        1.63893        0.43001
H         -1.88411        2.20255        2.38508
H         -1.07729        0.98340        1.41348
H         -0.18907        3.67603        1.84804
H          0.64481        2.37194        1.24168
H         -2.15414        2.46790       -1.76938
H         -0.74163        2.10023       -0.96698
C         -2.40360        2.27225        0.31340
C         -1.38314        2.03488        1.42481
N         -1.76625        1.93598       -0.99445
N         -0.22667        2.89296        1.21026
