31
2sa1ma1dma_75.log	Energy: -1023673.8218515
S          0.31157       -0.79902       -0.66135
O          1.59259       -1.08793       -1.29829
O         -0.88365       -1.23288       -1.41427
O          0.25639       -1.20432        0.76512
O          0.27113        0.82678       -0.65530
H          1.80703       -1.05010        1.38966
H         -0.62101        1.12257       -0.36622
S         -3.43809        0.45774        0.20032
O         -4.79085        0.94263        0.13281
O         -2.31428        1.37101        0.08875
O         -3.21308       -0.25003        1.62976
O         -3.29577       -0.71573       -0.81375
H         -3.99852       -0.77266        1.84639
H         -2.31730       -0.94399       -1.01709
N          2.83397       -0.87574        1.53942
H          3.04660        0.03761        0.97542
C          3.62355       -2.01120        1.01184
H          4.68819       -1.79328        1.10550
H          3.38036       -2.92127        1.56103
H          3.35184       -2.13456       -0.03640
H          3.00432       -0.71864        2.52977
N          3.22031        1.33452       -0.01540
C          4.12423        0.99438       -1.11670
C          3.57769        2.58335        0.65464
H          2.27191        1.40863       -0.38564
H          5.12262        0.78421       -0.71789
H          3.73959        0.10649       -1.62184
H          4.21253        1.80822       -1.84945
H          4.55262        2.47303        1.14097
H          3.63872        3.43064       -0.04238
H          2.83237        2.81663        1.41922
