30
2sa1a1eda_170.log	Energy: -1033754.2925206
S          0.26863        2.00494        0.12119
O          1.15635        1.07947        0.85023
O          0.58650        2.21655       -1.28425
O         -1.17433        1.69022        0.34769
O          0.52528        3.39784        0.90596
H          0.03858        4.09804        0.44932
S         -2.64932       -1.04075       -0.05108
O         -3.79811       -1.89442        0.00587
O         -1.37351       -1.58091       -0.51131
O         -3.00795        0.21782       -0.94685
O         -2.43182       -0.40427        1.38897
H         -2.31375        0.90862       -0.81532
H         -1.84513        0.38990        1.29745
H          2.44138       -2.62811       -1.21817
H          1.02361       -1.79518       -1.89672
H          3.24763       -0.74074       -2.46696
H          2.06277        0.36045       -1.76262
H          4.51062        0.23647       -0.87991
H          3.27285        0.50379        0.14025
H          0.35082       -2.02353        0.21911
H          1.94861       -2.01784        0.87268
C          1.85331       -1.70709       -1.19267
C          2.71304       -0.49493       -1.54491
N          1.28067       -1.59536        0.18039
N          3.68218       -0.19142       -0.48244
H          1.14216       -0.59854        0.44240
N          3.51802       -2.42409        1.67011
H          3.61307       -2.09206        2.62446
H          4.02128       -1.77993        1.05321
H          3.95316       -3.33882        1.61749
