36
2sa1dma1eda_26.log	Energy: -1083089.3517636
S         -2.61229       -1.11783       -0.14589
O         -2.05192       -2.36829       -0.69652
O         -4.00118       -1.17864        0.26990
O         -1.67190       -0.47282        0.80689
O         -2.54447       -0.02545       -1.38668
H         -3.15451       -0.31733       -2.07708
S          1.89349        1.23689       -0.63043
O          1.76948        0.82885        0.77472
O          1.79938        0.11272       -1.58347
O          1.03436        2.38297       -0.99308
O          3.42329        1.77907       -0.72730
H          3.57787        2.09200       -1.62908
N         -1.17428        2.18512        0.66668
C         -0.66922        2.63260        1.98304
C         -2.42115        2.84578        0.22798
H         -0.42208        2.32529       -0.04012
H         -1.40478        2.38250        2.74880
H          0.27209        2.11650        2.17205
H         -0.50454        3.71100        1.95648
H         -3.19854        2.66788        0.97263
H         -2.24430        3.91667        0.11689
H         -2.72332        2.40588       -0.72161
H         -1.34363        1.15149        0.70671
H          1.23795       -3.85670        0.58387
H          1.81535       -3.47299       -1.05927
H          3.63595       -3.32173        0.68497
H          3.37627       -1.79569       -0.16324
H          3.27665       -2.11628        2.55366
H          2.59656       -0.85102        1.73887
H         -0.30957       -2.31382       -0.45236
H          0.51009       -1.55965        0.76931
C          1.64834       -3.07321       -0.05652
C          2.92785       -2.49881        0.55034
N          0.63553       -1.99747       -0.15069
N          2.62108       -1.86335        1.82751
H          0.95993       -1.24439       -0.78958
