36
2sa1dma1eda_227.log	Energy: -1083064.4156668
S         -0.49718       -1.65590       -0.15440
O         -1.73621       -2.45952       -0.09603
O          0.71857       -2.47286       -0.36657
O         -0.60934       -0.50468       -1.05779
O         -0.38737       -1.06731        1.34673
H         -3.42627       -0.01026       -1.26894
H          0.50761       -0.67785        1.45655
S          3.11158       -0.07750        0.16867
O          4.50127        0.23704        0.36205
O          2.17577       -0.03125        1.27855
O          2.48295        0.97119       -0.88571
O          3.01933       -1.43940       -0.57767
H          3.08814        1.07194       -1.63442
H          2.07653       -1.84950       -0.52401
N         -0.41378        2.39585       -0.21445
C          0.04793        2.60764        1.15036
C          0.11573        3.38385       -1.14127
H         -0.14318        1.46394       -0.52382
H         -0.35995        3.54993        1.53446
H         -0.31212        1.79681        1.78959
H          1.14457        2.64593        1.23522
H         -0.29690        4.37160       -0.90529
H          1.21482        3.45945       -1.10591
H         -0.18261        3.12723       -2.16152
H         -2.38644        0.43567        1.16116
H         -3.80405        1.27218        1.80108
H         -4.20777       -1.20627        1.24384
H         -5.30751       -0.08674        0.39085
H         -2.94395       -1.53669       -0.64006
H         -4.46674       -1.34197       -1.35884
H         -3.95579        2.43935       -0.22179
H         -2.32244        2.08651       -0.30849
C         -3.38497        0.80287        0.90355
C         -4.26635       -0.39385        0.51813
N         -3.27489        1.68956       -0.24745
N         -3.75994       -0.87762       -0.79541
