37
2sa1dma1tma_22.log	Energy: -1073011.2277602
S         -2.74828       -0.40246       -0.01726
O         -2.64496       -1.03597        1.29634
O         -3.06019        1.04775        0.03516
O         -1.62369       -0.69680       -0.92950
O         -4.00776       -1.08799       -0.78337
H         -4.79081       -0.98235       -0.22610
S          2.82811        0.19838        0.01980
O          2.37031       -0.19474       -1.32119
O          2.90804        1.64695        0.23459
O          2.11591       -0.54231        1.09157
O          4.35321       -0.36666        0.18503
H          4.93638        0.21947       -0.31494
N          0.38269       -2.34151        0.03178
C         -0.17710       -3.18577        1.10901
C          1.06638       -3.09088       -1.04457
H         -0.38094       -1.76375       -0.37696
H          0.64109       -3.69022        1.62528
H         -0.73444       -2.54801        1.79464
H         -0.85756       -3.91970        0.67410
H          1.87991       -3.67261       -0.60795
H          0.34984       -3.75409       -1.53194
H          1.47545       -2.36794       -1.74997
H          1.06411       -1.65816        0.44874
N         -0.75928        2.46396       -0.00500
C          0.03016        2.15371       -1.22927
H          0.08597        1.07221       -1.34395
H         -0.48249        2.58841       -2.08809
H          1.03617        2.55982       -1.11600
C         -1.00534        3.91650        0.13913
H         -1.51844        4.28144       -0.75104
H         -1.62913        4.08572        1.01734
H         -0.04783        4.42793        0.25505
C         -0.13308        1.89538        1.22070
H         -0.79480        2.08805        2.06550
H         -0.00983        0.82162        1.08797
H          0.85210        2.34088        1.36332
H         -1.68887        1.98391       -0.09225
