37
2sa1dma1tma_44.log	Energy: -1073003.8435426
S         -1.95821       -1.74928       -0.03007
O         -0.62149       -2.14010        0.46624
O         -2.95625       -1.44388        0.99168
O         -1.87615       -0.72182       -1.09678
O         -2.53837       -3.08994       -0.74885
H         -1.84197       -3.43997       -1.32017
S          1.46545        0.84635        0.16104
O          2.58883        1.55698        0.82055
O          0.22740        1.61812        0.05954
O          1.89910        0.23151       -1.12481
O          1.21067       -0.37672        1.17158
H          3.54956       -0.19476       -0.86497
H          0.49746       -0.99365        0.84285
N          4.37716       -0.15006       -0.21668
C          5.61988        0.19935       -0.92549
C          4.42606       -1.39179        0.58634
H          4.03357        0.63474        0.38549
H          5.87438       -0.59619       -1.62751
H          5.46291        1.13223       -1.46697
H          6.42748        0.32436       -0.20228
H          4.64453       -2.23582       -0.06962
H          5.20187       -1.29959        1.34809
H          3.45034       -1.52314        1.05707
N         -2.77176        1.63525       -0.13259
C         -2.36775        2.83937       -0.89778
H         -1.31113        3.02396       -0.70982
H         -2.52372        2.64482       -1.95944
H         -2.98151        3.68474       -0.57727
C         -4.17727        1.24317       -0.40596
H         -4.29340        1.08018       -1.47744
H         -4.37729        0.31229        0.12569
H         -4.84248        2.04094       -0.06750
C         -2.53107        1.79182        1.32735
H         -2.78132        0.84671        1.81045
H         -1.47572        2.01711        1.47357
H         -3.16557        2.60007        1.69938
H         -2.19063        0.82672       -0.47015
