34
2sa1ma1tma_61.log	Energy: -1048320.8321612
S          1.67316        0.20812        0.01374
O          2.65408        1.30667       -0.09776
O          0.74427        0.12415       -1.12793
O          2.33846       -1.09165        0.30505
O          0.81660        0.59677        1.30129
H          3.95918       -0.82213        0.60041
H         -0.00252        0.04861        1.32249
S         -2.12303       -1.50843        0.06426
O         -3.53032       -1.18971        0.08596
O         -1.25680       -1.15234        1.17238
O         -1.99781       -3.11192       -0.02834
O         -1.51227       -1.05289       -1.29245
H         -2.76779       -3.45139       -0.50584
H         -0.61683       -0.57877       -1.18522
N          4.78914       -0.17406        0.50102
H          4.26468        0.71996        0.36908
C          5.58183       -0.51040       -0.70310
H          6.35213        0.24411       -0.86006
H          6.03513       -1.49312       -0.57781
H          4.89992       -0.52511       -1.55273
H          5.34269       -0.14902        1.35366
N         -1.99188        1.87929       -0.06335
C         -2.61330        2.05447        1.23712
H         -3.36294        1.27410        1.39604
H         -1.85519        1.96958        2.02181
H         -3.10705        3.04129        1.34039
C         -0.95736        2.87418       -0.28944
H         -0.20739        2.81871        0.50311
H         -0.45579        2.67484       -1.24031
H         -1.36956        3.90256       -0.31548
C         -2.98134        1.91570       -1.12634
H         -2.49563        1.71656       -2.08618
H         -3.73512        1.14256       -0.95837
H         -3.48950        2.89836       -1.19171
