36
2sa1dma1eda_131.log	Energy: -1083077.6514667
S          2.06229       -0.97549       -0.53303
O          1.44944       -2.28985       -0.68049
O          1.58841        0.01558       -1.53050
O          2.01601       -0.42204        0.84622
O          3.62196       -1.24313       -0.84707
H          4.12015       -0.42810       -0.69429
S          0.07094        2.40554        0.36838
O         -0.39033        3.72514        0.68780
O         -0.89429        1.31936        0.19992
O          0.94503        2.49318       -0.94301
O          1.10429        1.97294        1.48328
H          1.21217        1.57299       -1.23466
H          1.48146        1.07144        1.27344
N         -0.79536       -1.48619        1.65000
C         -0.58236       -2.90091        1.95651
C         -1.79533       -0.84976        2.50429
H          0.09510       -0.99885        1.73863
H         -1.50286       -3.45840        1.75026
H          0.21612       -3.28516        1.31800
H         -0.31352       -3.06733        3.00873
H         -2.76782       -1.32729        2.33982
H         -1.55334       -0.93690        3.57265
H         -1.87326        0.20619        2.23831
H         -2.67875       -1.89056       -2.43452
H         -2.89527       -2.55550       -0.79302
H         -4.52918       -0.72182       -1.28056
H         -3.46191       -0.29110        0.05471
H         -3.79019        1.16047       -2.27761
H         -2.56872        1.37013       -1.18551
H         -0.51722       -1.99507       -1.38567
H         -0.97544       -0.40796       -1.40973
C         -2.61338       -1.66816       -1.36713
C         -3.49551       -0.46661       -1.02855
N         -1.21305       -1.33239       -1.03390
N         -3.04364        0.69802       -1.77846
H         -1.06957       -1.31079        0.05200
