27
2sa1tma_07.log	Energy: -988182.9740976
S          2.38143        0.35353       -0.01069
O          2.39138       -0.71949       -1.17926
O          3.67612        0.96548        0.04359
O          1.19545        1.18804       -0.15371
O          2.20253       -0.54303        1.29015
H          1.43135       -1.14438        1.13682
S         -1.09342       -1.78497       -0.16089
O         -1.32689       -0.62981       -1.04156
O         -1.87457       -2.97872       -0.40920
O          0.36147       -2.03130        0.04975
O         -1.61088       -1.19139        1.29861
H          1.58935       -1.28744       -1.08576
H         -1.82871       -1.94704        1.86083
N         -1.61279        1.86175       -0.04642
C         -1.14308        2.94055       -0.95213
H         -0.06480        3.03894       -0.84015
H         -1.37994        2.66052       -1.97880
H         -1.65091        3.87072       -0.68814
C         -3.07220        1.61992       -0.18352
H         -3.28853        1.36857       -1.22107
H         -3.34203        0.77648        0.45122
H         -3.61112        2.52105        0.11657
C         -1.23436        2.11598        1.36831
H         -1.51776        1.24310        1.95614
H         -0.15577        2.25362        1.41596
H         -1.76031        3.00722        1.71754
H         -1.15843        0.97242       -0.35394
