28
2sa1a1dma_15.log	Energy: -999032.5395612
S          2.82924       -0.23045       -0.00532
O          4.19449       -0.61769       -0.29859
O          2.65676        1.13825        0.52433
O          1.80860       -0.54837       -1.03641
O          2.31494       -1.23779        1.20965
H          3.01933       -1.29531        1.86849
S         -2.61170       -0.39581       -0.01254
O         -1.41352       -0.31406        0.87647
O         -3.01712        0.91772       -0.51054
O         -2.46256       -1.47191       -1.00486
O         -3.82364       -0.93212        0.92541
H         -4.21069       -0.17152        1.37890
N          0.05834        1.88780        0.03304
C         -0.47846        3.01588        0.82078
C         -0.09101        2.05275       -1.43285
H          1.06429        1.71792        0.25764
H         -1.54584        3.10676        0.61461
H         -0.32120        2.81115        1.87975
H          0.04233        3.93274        0.54080
H         -1.15400        2.10799       -1.66964
H          0.42655        2.96308       -1.73932
H          0.36733        1.18881       -1.91336
H         -0.44313        1.02447        0.33184
N          0.02097       -2.41796       -0.30576
H         -0.90607       -2.24972       -0.75427
H          0.74963       -1.77949       -0.71577
H         -0.08426       -2.12092        0.66744
H          0.31311       -3.38874       -0.36340
