33
2sa1ma1eda_88.log	Energy: -1058421.4884420
S          0.12413       -1.66261        0.36109
O         -1.19107       -2.29630        0.50752
O          0.24889       -0.91807       -0.93104
O          0.41108       -0.74758        1.51076
O          1.21328       -2.77929        0.35875
H          2.14638       -2.29798        0.25116
S          1.00035        2.23118        0.10477
O          1.66097        3.49821       -0.01390
O         -0.42203        2.19120        0.45661
O          1.19755        1.45384       -1.25418
O          1.78601        1.34532        1.14774
H          0.81356        0.52310       -1.16835
H          1.23896        0.50899        1.36491
N          3.40889       -1.43115        0.00993
H          3.23397       -0.50079        0.38828
C          3.66777       -1.34379       -1.43719
H          4.49973       -0.67604       -1.68178
H          3.88392       -2.34267       -1.82149
H          2.76396       -0.98079       -1.92838
H          4.22131       -1.79394        0.50033
H         -2.89380        1.37824       -1.07092
H         -1.99857       -0.12746       -1.38693
H         -4.43936       -0.34531       -2.02717
H         -3.96694       -1.47824       -0.75774
H         -5.54400        0.95867       -0.37433
H         -5.83031       -0.55160        0.18431
H         -1.62986        0.90151        0.81201
H         -3.24627        0.49932        1.18464
C         -2.80627        0.32153       -0.80701
C         -4.12643       -0.41818       -0.97831
N         -2.42010        0.25709        0.62745
N         -5.09889        0.11727       -0.02331
H         -2.12153       -0.71038        0.85614
