25
2sa1a1ma_11.log	Energy: -974371.6439604
S          2.01105       -0.39467       -0.23057
O          1.04076       -1.42492       -0.70625
O          2.00184        0.80397       -1.08947
O          1.91152       -0.14408        1.20542
O          3.47480       -1.06048       -0.41047
H          3.65030       -1.16700       -1.35586
S         -2.28976       -0.14427       -0.19369
O         -1.39304        0.47268        0.84796
O         -2.54778       -1.55703        0.17394
O         -3.43301        0.66066       -0.55937
O         -1.36888       -0.16590       -1.52682
H         -0.55598       -0.69200       -1.36140
N          0.07010        2.47514       -0.07058
H          0.75258        1.96558       -0.66724
H         -0.46215        3.13047       -0.63865
C          0.77880        3.12595        1.05517
H          0.05027        3.58670        1.72187
H          1.33172        2.34881        1.58374
H          1.47148        3.87586        0.67349
H         -0.59442        1.72799        0.29764
N         -0.34841       -2.09599        1.57734
H         -1.32042       -2.06340        1.16148
H         -0.21768       -2.83390        2.26153
H          0.30711       -2.17475        0.77697
H         -0.16781       -1.17032        1.97679
