28
2sa1a1dma_19.log	Energy: -999032.9509313
S          2.11431       -0.37011       -0.24708
O          1.35342       -1.61029       -0.57404
O          2.18017        0.58554       -1.34400
O          1.69772        0.18818        1.05688
O          3.62696       -0.87400        0.06304
H          4.02658       -1.16229       -0.76948
S         -2.21400       -0.53284       -0.36268
O         -3.60323       -0.91608       -0.43485
O         -1.79869        0.64102       -1.16763
O         -1.68170       -0.37241        1.03918
O         -1.39969       -1.80093       -0.95619
H         -0.71831       -1.43255        1.57131
H         -0.45684       -1.57015       -1.09423
N         -0.16582        2.21123        0.29349
C          0.52930        3.23059       -0.52218
C         -1.00921        2.75585        1.37869
H         -0.77585        1.61762       -0.32941
H          1.15944        3.84321        0.12488
H          1.14389        2.71225       -1.25766
H         -0.21616        3.85469       -1.01696
H         -0.38517        3.31620        2.07700
H         -1.76338        3.41347        0.94404
H         -1.49645        1.91743        1.87624
H          0.52746        1.55082        0.68905
N          0.07939       -2.11795        1.81555
H          0.69322       -1.68419        2.50207
H          0.62170       -2.22032        0.93348
H         -0.28036       -3.00886        2.14451
