37
2sa1dma1tma_18.log	Energy: -1073013.9386827
S         -2.55267        0.16738       -0.18187
O         -2.32322        1.48281       -0.82480
O         -2.88428       -0.90581       -1.12460
O         -1.51350       -0.17141        0.80162
O         -3.87648        0.36661        0.75758
H         -4.63624        0.48675        0.17229
S          2.55588        0.14161       -0.18052
O          2.87418       -0.93863       -1.11992
O          2.33442        1.45588       -0.82912
O          1.51878       -0.18344        0.80921
O          3.88654        0.33452        0.75069
H          4.64436        0.44218        0.16051
N          0.01415        2.62393        0.03762
C          0.02569        3.98479       -0.53347
C          0.01251        2.58091        1.51695
H         -0.83468        2.12401       -0.31138
H          0.92367        4.50720       -0.20029
H          0.02799        3.90730       -1.62063
H         -0.86594        4.52082       -0.20480
H          0.91280        3.07389        1.88742
H         -0.88053        3.08816        1.88580
H          0.00398        1.53402        1.81570
H          0.85604        2.11118       -0.31023
N         -0.01857       -2.53174        0.17147
C          1.20710       -3.16096        0.72920
H          2.07791       -2.70259        0.26319
H          1.23028       -2.98961        1.80510
H          1.17191       -4.23115        0.51355
C         -1.25031       -3.15630        0.72081
H         -1.27809       -2.98831        1.79716
H         -2.11627       -2.69165        0.25182
H         -1.22014       -4.22599        0.50200
C         -0.01363       -2.55655       -1.31897
H         -0.91217       -2.04747       -1.67027
H          0.88939       -2.05138       -1.66435
H         -0.01466       -3.59964       -1.64391
H         -0.01979       -1.53262        0.45352
