39
2sa1eda1tma_65.log	Energy: -1107744.0261978
S          2.71100        0.42267       -0.07908
O          2.53977        1.81008        0.41583
O          3.04102       -0.54688        0.96433
O          1.61739        0.02491       -0.98757
O          3.98855        0.46925       -1.08652
H          4.78281        0.60858       -0.55301
S         -3.03892       -0.30478       -0.02689
O         -3.41305        1.11324       -0.06717
O         -2.54799       -0.81885       -1.33220
O         -2.16398       -0.70213        1.08560
O         -4.41892       -1.12123        0.28385
H         -5.11280       -0.74147       -0.27105
H         -0.36288       -4.09082       -0.44551
H          0.57643       -3.45465       -1.81682
H          2.04097       -4.48264       -0.00624
H          2.41401       -2.79241       -0.34399
H          1.44531       -3.83540        2.11465
H          2.01132       -2.31962        1.75284
H         -1.09458       -1.79787       -1.01652
H         -0.43717       -1.90834        0.48903
C          0.37641       -3.34567       -0.74853
C          1.65778       -3.45977        0.08232
N         -0.21127       -2.01087       -0.50923
N          1.39143       -3.06758        1.46016
H          0.47367       -1.26246       -0.73102
N          0.00053        2.72219        0.14619
C         -0.61778        2.07316        1.33502
H         -0.56041        0.99129        1.22279
H         -0.06897        2.38831        2.22282
H         -1.67066        2.35282        1.39105
C          0.02020        4.19651        0.28251
H          0.55810        4.45983        1.19370
H          0.52879        4.62765       -0.58019
H         -1.00674        4.56359        0.33361
C         -0.65050        2.29206       -1.12190
H         -0.16945        2.81130       -1.95140
H         -0.50425        1.22015       -1.23713
H         -1.71784        2.50958       -1.06950
H          0.99734        2.39547        0.13190
