37
2sa1dma1tma_38.log	Energy: -1073004.5236373
S          2.00710       -1.68740        0.04936
O          2.30616       -0.63360       -0.93542
O          2.45724       -1.37746        1.41186
O          0.61333       -2.18024       -0.01639
O          2.92658       -2.92601       -0.47811
H          2.72060       -3.69673        0.06722
S         -1.40101        0.72360       -0.73761
O         -0.21363        1.47191       -1.14357
O         -2.67349        1.14379       -1.36586
O         -1.26381       -0.79178       -1.24143
O         -1.53897        0.63916        0.75258
H         -0.49509       -1.25980       -0.80637
H         -3.12549        0.01458        0.95197
N         -4.06056       -0.21486        0.52345
C         -5.16987        0.34473        1.31537
C         -4.13716       -1.66890        0.25861
H         -3.93496        0.29996       -0.37596
H         -5.20371       -0.14811        2.28816
H         -4.99946        1.41291        1.44961
H         -6.11230        0.18403        0.78941
H         -4.12253       -2.20584        1.20811
H         -5.05883       -1.88941       -0.28223
H         -3.26913       -1.94387       -0.34219
N          2.38462        1.79406        0.29269
C          3.80922        1.51965        0.61254
H          3.86268        0.56192        1.13105
H          4.37057        1.46067       -0.31981
H          4.19170        2.32808        1.23986
C          2.22230        3.04588       -0.48539
H          2.78789        2.95591       -1.41337
H          1.16587        3.17165       -0.71514
H          2.60338        3.88020        0.10832
C          1.54504        1.78522        1.52158
H          0.50096        1.90147        1.23348
H          1.68076        0.82078        2.01265
H          1.87165        2.60248        2.16951
H          2.07494        0.98990       -0.30073
