26
2sa1eda_56.log	Energy: -998252.3047668
S          2.27850        0.20765       -0.00629
O          2.08173        0.79376        1.31699
O          2.11976       -1.26941       -0.07890
O          1.51044        0.89377       -1.06974
O          3.84577        0.45258       -0.31609
H          4.09610       -0.09314       -1.07414
S         -1.30270       -1.91220       -0.07777
O         -2.39829       -2.72322       -0.54133
O         -1.39006       -0.46401       -0.13365
O         -1.04592       -2.20172        1.48815
O         -0.00630       -2.42633       -0.75842
H         -1.04397       -3.15822        1.63868
H          0.84196       -1.90012       -0.48811
H         -1.32265        3.84010        1.04405
H         -0.30800        3.89235       -0.42525
H         -2.76935        3.79692       -0.96031
H         -1.90618        2.39764       -1.59381
H         -4.04398        2.32707        0.18619
H         -3.07046        1.04879       -0.19224
H          0.41053        2.18413        1.28857
H         -1.01233        1.38646        0.95313
C         -1.01439        3.29166        0.15168
C         -2.23907        2.88558       -0.66957
N         -0.32411        2.05581        0.58693
N         -3.08660        2.00975        0.13082
H          0.17428        1.58517       -0.20471
