28
2sa1a1dma_04.log	Energy: -999033.2464067
S         -2.55146       -0.44483        0.00937
O         -2.99630        0.82037        0.59356
O         -1.33399       -0.27746       -0.83663
O         -2.40878       -1.59163        0.92137
O         -3.73041       -0.93363       -0.99487
H         -4.09555       -0.15348       -1.43292
S          2.61275       -0.27520       -0.15116
O          2.30979       -1.25459       -1.19883
O          2.57145        1.13288       -0.59773
O          1.84620       -0.50679        1.09703
O          4.14249       -0.53669        0.32716
H          4.72786       -0.35018       -0.41959
N          0.00890        1.97532       -0.01615
C         -0.61018        3.08990       -0.76098
C         -0.09221        2.10162        1.45755
H         -0.46550        1.09182       -0.31283
H         -0.12535        4.02688       -0.48285
H         -0.48385        2.91053       -1.82870
H         -1.67211        3.12355       -0.51307
H          0.38434        3.03314        1.76712
H         -1.14744        2.09126        1.73292
H          0.42932        1.25308        1.90048
H          1.00702        1.84620       -0.28245
N          0.12474       -2.47880        0.33018
H         -0.86204       -2.29481        0.62491
H          0.77358       -1.82052        0.82232
H          0.40240       -3.44305        0.48722
H          0.22210       -2.23841       -0.65992
