37
2sa1dma1tma_15.log	Energy: -1073016.2412660
S         -0.30599        2.05832       -0.46214
O         -0.63067        2.09076        0.96155
O          1.10366        2.33214       -0.80116
O         -0.82123        0.85353       -1.16631
O         -1.15752        3.30612       -1.06729
H         -0.90831        3.42094       -1.99455
S          0.71252       -2.11164       -0.42628
O          1.58159       -3.25007       -0.64630
O         -0.72981       -2.30383       -0.66421
O          0.93351       -1.41826        0.88781
O          1.19315       -1.01094       -1.53060
H          1.96833       -0.22398        0.77827
H          0.48516       -0.33248       -1.59264
N          2.67277        0.56346        0.66056
C          3.92358       -0.02022        0.13595
C          2.80013        1.28653        1.94131
H          2.24575        1.20368       -0.03371
H          4.30652       -0.74319        0.85770
H          3.69189       -0.52977       -0.79955
H          4.65792        0.77003       -0.03062
H          3.11560        0.58601        2.71602
H          3.53508        2.08701        1.83935
H          1.82574        1.70964        2.18945
N         -2.67210       -0.64274        0.50320
C         -3.49363        0.59032        0.39814
H         -2.89035        1.44014        0.71447
H         -3.79996        0.72062       -0.63950
H         -4.36845        0.48061        1.04253
C         -3.45380       -1.85261        0.13887
H         -3.85002       -1.72294       -0.86849
H         -2.78354       -2.70939        0.15679
H         -4.27078       -1.96510        0.85480
C         -2.05262       -0.77352        1.85091
H         -1.39360       -1.64017        1.84136
H         -1.46410        0.12489        2.03581
H         -2.85029       -0.88090        2.58958
H         -1.88513       -0.56621       -0.16775
