36
2sa1dma1eda_36.log	Energy: -1083090.1444712
S         -2.10997       -1.09239       -0.55951
O         -2.03070        0.00576       -1.54473
O         -1.34458       -2.29019       -0.96320
O         -1.85110       -0.66556        0.82086
O         -3.66877       -1.54982       -0.52565
H         -3.91284       -1.86103       -1.40811
S          2.65542        0.78460       -0.29973
O          3.26171       -0.30549       -1.05873
O          2.18530        1.92809       -1.10629
O          1.63039        0.34008        0.68136
O          3.81230        1.37648        0.68507
H          4.55541        1.65717        0.13400
N          0.96018       -2.30227        0.57091
C          0.46681       -2.71755        1.90210
C          2.10784       -3.08625        0.06497
H          0.16399       -2.35575       -0.09855
H          1.25599       -2.56246        2.63925
H         -0.40545       -2.10879        2.14104
H          0.18760       -3.77188        1.86704
H          2.92056       -3.03154        0.79048
H          1.79932       -4.12319       -0.07719
H          2.44264       -2.64437       -0.87277
H          1.22966       -1.29089        0.61402
H         -0.74768        3.93160        0.39292
H         -1.56512        3.60525       -1.15856
H         -3.15524        3.72908        0.80048
H         -3.22023        2.17639       -0.03829
H         -2.77017        2.47498        2.63179
H         -2.31517        1.14268        1.77112
H          0.44593        2.18274       -0.77404
H         -0.28789        1.56813        0.56094
C         -1.33136        3.20104       -0.17104
C         -2.59275        2.81256        0.59971
N         -0.48482        2.00008       -0.35096
N         -2.22225        2.15253        1.84634
H         -0.98010        1.28048       -0.91585
