31
2sa1ma1dma_84.log	Energy: -1023670.4022387
S          0.61422       -1.94379       -0.00425
O         -0.75372       -2.51733        0.01129
O          1.69958       -2.88519       -0.19565
O          0.68263       -1.01746       -1.35759
O          0.81913       -0.97682        1.10513
H         -0.10415       -0.43218       -1.35606
H          2.25526       -0.19885        0.61575
S         -2.63945        0.37582       -0.06309
O         -3.92059        0.95688       -0.36427
O         -1.49740        0.62340       -0.93167
O         -2.14028        0.93936        1.36494
O         -2.83095       -1.14021        0.18761
H         -2.86894        0.87893        1.99927
H         -1.94426       -1.68978        0.15185
N          2.96411        0.25558       -0.01151
H          2.76242       -0.14736       -0.92954
C          4.34758       -0.01001        0.42599
H          5.05120        0.42249       -0.28586
H          4.49897        0.43996        1.40718
H          4.50059       -1.08710        0.49244
H          2.69928        1.29283       -0.03898
N          1.83110        2.77391       -0.00108
C          0.86191        2.55399        1.08218
C          1.17523        2.90465       -1.30690
H          2.36071        3.61908        0.18977
H          0.37249        1.58623        0.94358
H          1.38478        2.53862        2.04201
H          0.08421        3.32805        1.11078
H          0.64898        1.97455       -1.53564
H          0.43472        3.71507       -1.32647
H          1.92538        3.08777       -2.08054
