24
2sa1dma_37.log	Energy: -963491.7520749
S         -2.11903       -0.60469       -0.15372
O         -3.50555       -0.51804       -0.50439
O         -1.12972        0.26218       -0.77567
O         -1.93360       -0.31971        1.41338
O         -1.67810       -2.10276       -0.30748
H         -2.68005       -0.69761        1.90280
H         -0.68792       -2.18782       -0.25196
S          1.97262       -1.12680       -0.06109
O          3.35869       -1.37114       -0.32882
O          0.97933       -2.17801       -0.20306
O          1.77948       -0.63310        1.45148
O          1.54290        0.12851       -0.90794
H          2.47510        0.00133        1.68279
H          0.55811        0.24507       -0.87750
N         -0.27576        3.26681       -0.05930
C          0.18603        2.78588        1.22689
C          0.80151        3.73851       -0.91125
H         -0.80573        2.54198       -0.52884
H          0.58861        3.62247        1.80903
H         -0.64895        2.35475        1.78451
H          0.98042        2.01844        1.15403
H          1.26395        4.62233       -0.45787
H          1.59754        2.98972       -1.07580
H          0.39915        4.03584       -1.88304
