36
2sa1dma1eda_78.log	Energy: -1083088.2555234
S         -0.53490       -2.20235       -0.06630
O          0.62929       -3.00763        0.34383
O          0.10619       -1.25011       -1.22166
O         -1.65715       -2.91951       -0.65597
O         -0.94672       -1.24570        1.00817
H         -2.31871       -0.44686        0.70074
S         -0.05671        2.21848       -0.36192
O          1.17925        1.58029        0.12233
O          0.12213        3.51854       -0.98308
O         -0.93552        1.26588       -1.09340
O         -0.97743        2.49218        0.98485
H         -0.32734       -0.36407       -1.22735
H         -0.71764        3.35391        1.33640
N         -3.07290        0.18896        0.31210
C         -3.76730        0.89188        1.40753
C         -3.95714       -0.59437       -0.57993
H         -2.50881        0.85150       -0.24835
H         -4.26800        0.15668        2.03914
H         -3.02504        1.44230        1.98376
H         -4.50141        1.58419        0.99137
H         -4.51831       -1.31087        0.02084
H         -4.63948        0.08120       -1.09830
H         -3.33907       -1.14572       -1.28829
H          3.72918       -1.80771       -0.53606
H          2.58366       -0.73391       -1.36285
H          4.87921        0.31692       -1.19708
H          3.64917        1.24732       -0.32858
H          5.68768       -0.46176        0.89320
H          5.24326        1.06152        1.29124
H          1.77239       -1.74914        0.73749
H          2.92452       -0.75914        1.53711
C          3.21860       -0.84233       -0.48354
C          4.20732        0.30680       -0.32953
N          2.33394       -0.86798        0.70698
N          4.89739        0.17100        0.95586
H          1.68228       -0.06187        0.65469
