25
2sa1a1ma_59.log	Energy: -974352.7647544
S         -0.86154       -1.13362       -0.25826
O         -2.17491       -1.76022       -0.25603
O          0.27189       -2.02578        0.07571
O         -0.56614       -0.30189       -1.45175
O         -0.95777       -0.06006        0.97034
H         -1.24294        1.19529       -1.30629
H         -0.04929        0.26466        1.15627
S          2.74456        0.38549        0.28243
O          4.09250        0.68626        0.68326
O          1.61664        0.86307        1.06848
O          2.47781        1.03120       -1.17112
O          2.64023       -1.14374        0.03252
H          3.22438        0.82283       -1.75116
H          1.66793       -1.49393        0.00840
N         -3.97469        0.62199       -0.11682
H         -4.85964        0.69106       -0.61076
C         -4.17558        0.80346        1.33047
H         -4.90050        0.09757        1.74843
H         -3.21728        0.64912        1.82987
H         -4.52165        1.82136        1.52997
H         -3.60573       -0.31971       -0.28373
N         -1.83375        2.01025       -0.98589
H         -1.35853        2.45048       -0.20155
H         -2.78521        1.54910       -0.64846
H         -1.96934        2.68511       -1.73282
