27
2sa1tma_04.log	Energy: -988185.3340415
S          1.01532       -1.63232        0.00083
O          1.24459       -0.70883       -1.11899
O          1.62506       -1.21923        1.26645
O         -0.42032       -2.01300        0.14952
O          1.75678       -2.98460       -0.49053
H          1.59497       -3.67792        0.16426
S         -2.37370        0.41285       -0.02596
O         -1.14436        1.18959       -0.12052
O         -3.64062        1.08220       -0.04220
O         -2.37787       -0.67262       -1.18465
O         -2.30235       -0.47442        1.29070
H         -1.59493       -1.26005       -1.06142
H         -1.53652       -1.09407        1.20011
N          1.69871        1.79292       -0.04522
C          1.26304        2.92884       -0.89547
H          1.49055        2.69481       -1.93573
H          0.18799        3.05349       -0.77500
H          1.79792        3.82908       -0.58558
C          1.34849        2.00006        1.38644
H          0.27793        2.18388        1.45456
H          1.59916        1.08787        1.92789
H          1.91802        2.85258        1.76285
C          3.14434        1.49063       -0.20808
H          3.37662        0.61013        0.39095
H          3.34038        1.27528       -1.25786
H          3.72608        2.35303        0.12391
H          1.20231        0.94300       -0.38600
