25
2sa1a1ma_20.log	Energy: -974371.6484032
S          1.95218       -0.61033        0.29550
O          3.34259       -0.86619        0.57114
O          1.21093        0.14068        1.36781
O          1.68125        0.06427       -1.01660
O          1.23445       -2.04083        0.21209
H          0.60796       -0.54688       -2.05147
H          0.25198       -1.92376        0.22049
S         -2.10591       -0.27187        0.24298
O         -3.53047       -0.34288        0.44174
O         -1.40910       -1.54649       -0.07964
O         -1.68046        0.77462       -0.76740
O         -1.47934        0.23302        1.63684
H         -0.57462        1.91415       -0.16463
H         -0.51488        0.01758        1.66441
N          0.18264        2.43739        0.34049
H         -0.26336        3.01445        1.05113
C          1.04303        3.21827       -0.57696
H          1.78401        3.76904        0.00188
H          1.54760        2.50897       -1.23247
H          0.42893        3.90956       -1.15389
H          0.72616        1.67881        0.81908
N         -0.31021       -0.77456       -2.53378
H         -0.63471       -1.68353       -2.19924
H         -0.24425       -0.74618       -3.54639
H         -0.97906       -0.07612       -2.13764
