31
2sa1a1tma_38.log	Energy: -1023675.6577058
S          0.34651        0.03076       -0.75308
O         -0.76444        0.16226       -1.71909
O          0.40423       -1.25983       -0.06252
O          1.64989        0.44904       -1.31805
O          0.09620        1.16068        0.38183
H         -0.82424        1.07520        0.71697
S         -3.55189        0.01916        0.33043
O         -4.95281        0.30123        0.49522
O         -2.54729        0.80345        1.02611
O         -3.26320       -1.48812        0.81775
O         -3.24866       -0.02913       -1.19800
H         -3.98229       -2.05957        0.51214
H         -2.24565        0.00838       -1.39561
N          2.85176        2.61417        0.39891
H          3.08848        3.55656        0.69254
H          1.89758        2.42896        0.70329
H          2.79593        2.61596       -0.61627
N          3.55065       -0.62136        0.26826
C          3.51942       -2.03081       -0.19675
H          2.49848       -2.39881       -0.09161
H          3.80920       -2.05927       -1.24761
H          4.21517       -2.62127        0.40366
C          4.87561        0.01346        0.07188
H          5.14608       -0.05950       -0.98230
H          4.78342        1.06071        0.36329
H          5.61590       -0.50688        0.68411
C          3.08740       -0.49746        1.67572
H          3.07855        0.56257        1.92866
H          2.07940       -0.90851        1.73910
H          3.77356       -1.04949        2.32238
H          2.85368       -0.10142       -0.33164
