36
2sa1dma1eda_72.log	Energy: -1083090.2347761
S         -0.00379        2.08423       -0.56261
O          0.32079        2.54143        0.79042
O          1.13921        1.34088       -1.17789
O         -1.29346        1.41180       -0.73635
O         -0.19203        3.41603       -1.47450
H          0.55966        4.00149       -1.31333
S          0.67840       -2.16015       -0.41272
O         -0.44397       -3.11314       -0.43169
O          2.01919       -2.70563       -0.58203
O          0.34263       -1.23166       -1.70023
O          0.58149       -1.22531        0.75714
H          0.72729       -0.33044       -1.59607
H          1.92003       -0.33259        1.00239
N          2.71034        0.36719        0.92828
C          3.94676       -0.33139        0.51328
C          2.82310        1.14252        2.18051
H          2.36643        0.97103        0.16085
H          4.26253       -0.99702        1.31743
H          3.72715       -0.93179       -0.36965
H          4.72585        0.40438        0.30653
H          3.05589        0.45853        2.99800
H          3.61899        1.88274        2.07936
H          1.87183        1.64516        2.35214
H         -2.96807       -1.80701        1.59687
H         -1.63809       -0.62971        1.60892
H         -3.81288        0.42247        2.37139
H         -3.18931        1.16334        0.88972
H         -5.45641       -0.67805        1.06542
H         -5.32741        0.72997        0.24065
H         -1.81852       -1.98554       -0.44211
H         -3.28646       -1.14904       -0.74517
C         -2.60178       -0.87331        1.16127
C         -3.62216        0.24908        1.30485
N         -2.37137       -1.11508       -0.28485
N         -4.81927       -0.09531        0.53347
H         -1.83646       -0.31737       -0.67475
