34
2sa1ma1tma_45.log	Energy: -1048333.2902322
S          0.43679       -1.54852       -0.33088
O         -0.77463       -2.35032       -0.04300
O          1.64473       -2.30440       -0.62391
O          0.13627       -0.74721       -1.69954
O          0.63276       -0.49491        0.70902
H         -0.71892       -0.27851       -1.59296
H          2.15095        0.09174        0.66454
S         -3.02743        0.25111        0.24441
O         -4.41292        0.63882        0.26784
O         -2.19849        0.52427       -0.91765
O         -2.26110        1.02271        1.43828
O         -2.93251       -1.24415        0.65399
H         -2.81782        1.00131        2.22972
H         -2.03105       -1.68056        0.39773
N          0.59753        2.45671       -0.15530
H          0.20183        1.56952        0.15237
C          0.23300        2.69571       -1.55540
H         -0.84905        2.73305       -1.73282
H          0.67732        3.63592       -1.89586
H          0.63920        1.89012       -2.17450
H          0.16436        3.16562        0.42867
N          3.17066        0.35209        0.55245
C          3.37283        0.58955       -0.90095
H          3.08270       -0.31355       -1.43926
H          2.73562        1.42422       -1.19273
H          4.42512        0.82339       -1.07872
C          3.41982        1.58070        1.34379
H          2.73680        2.34904        0.97440
H          3.21611        1.36961        2.39443
H          4.46338        1.87964        1.21937
C          3.95895       -0.80997        1.03275
H          3.74337       -0.96673        2.09012
H          3.65008       -1.68823        0.46474
H          5.02240       -0.60323        0.89287
