28
2sa1a1dma_22.log	Energy: -999030.3404605
S          2.69014       -0.41160       -0.09304
O          2.51044       -1.66019       -0.84317
O          2.98972        0.77741       -0.88570
O          1.57800       -0.18716        0.88677
O          3.94754       -0.64579        0.91410
H          4.74773       -0.73047        0.37778
S         -2.82456       -0.46430       -0.21481
O         -1.63736        0.07921       -0.91183
O         -4.12401       -0.15081       -0.77434
O         -2.62109       -1.88653        0.15119
O         -2.73193        0.36382        1.21717
H         -3.58834        0.28366        1.65789
N          0.03684        1.96482        0.04858
C         -0.47281        2.74852        1.19271
C          0.59504        2.77699       -1.05531
H          0.74871        1.28574        0.38819
H         -1.25446        3.42489        0.84435
H         -0.89173        2.05784        1.92339
H          0.34816        3.31790        1.63091
H         -0.18905        3.42718       -1.44621
H          1.43085        3.36743       -0.67948
H          0.95968        2.10412       -1.82941
H         -0.72054        1.34623       -0.32399
N          0.01836       -2.39682        0.29070
H         -1.02484       -2.25326        0.19967
H          0.22631       -3.23696        0.82337
H          0.48451       -2.45637       -0.61848
H          0.46360       -1.57217        0.74461
