24
2sa1dma_22.log	Energy: -963518.0983800
S         -3.06147        0.35756       -0.05758
O         -2.14573        0.54193       -1.16833
O         -4.48455        0.44342       -0.24729
O         -2.75772       -0.98105        0.68446
O         -2.60953        1.48307        1.00226
H         -1.76662       -1.21514        0.65582
H         -3.27563        1.53714        1.70258
S          0.83154       -0.83515        0.00163
O         -0.28891       -1.62031        0.55064
O          2.06878       -1.60836       -0.20442
O          0.41933       -0.40523       -1.49199
O          1.07692        0.42558        0.74648
H         -0.48165       -0.01162       -1.47224
H          2.77180        0.81214        0.56826
N          3.68811        0.51002        0.16005
C          4.80343        0.68064        1.10989
C          3.86418        1.16668       -1.15515
H          3.45704       -0.49441        0.00179
H          4.94990        1.74330        1.30773
H          4.55686        0.16335        2.03694
H          5.71243        0.25684        0.68077
H          3.98234        2.24080       -1.00778
H          4.74641        0.75595       -1.64756
H          2.97499        0.96669       -1.75431
