39
2sa1eda1tma_15.log	Energy: -1107749.1214053
S         -0.21342       -1.96175       -0.76905
O         -1.12829       -2.97893       -1.24542
O         -0.63216       -0.62585       -1.57093
O         -0.36757       -1.60548        0.67660
O          1.22728       -2.18230       -1.06961
H          2.15364       -1.34883       -0.05462
S          0.45272        2.60739       -0.17435
O          1.39080        3.71016       -0.28613
O         -0.18848        2.41695        1.13954
O         -0.84081        2.96482       -1.12177
O          0.97664        1.32668       -0.72819
H         -0.50884        3.31272       -1.96036
H         -0.01248        0.11064       -1.32522
H         -3.67380        1.43625        0.26887
H         -2.52514        0.67831       -0.86021
H         -4.66741       -0.63097       -0.74592
H         -3.27468       -1.56890       -0.21023
H         -5.38033       -0.47515        1.49015
H         -4.63648       -1.93016        1.55964
H         -1.47891        1.26383        1.26736
H         -2.59587        0.21162        2.03254
C         -3.07015        0.54581        0.07359
C         -3.91682       -0.72093        0.04884
N         -2.08111        0.42022        1.17329
N         -4.48851       -0.94474        1.37991
H         -1.43200       -0.39022        0.99109
N          2.92169       -1.00319        0.59211
C          3.76036       -0.05825       -0.18804
H          4.14913       -0.58054       -1.06288
H          3.13006        0.77368       -0.50391
H          4.58339        0.29109        0.43993
C          2.29696       -0.34942        1.77002
H          1.72886        0.51334        1.42707
H          1.61691       -1.06132        2.23619
H          3.08454       -0.04353        2.46316
C          3.66712       -2.22459        0.97562
H          2.98357       -2.90453        1.48418
H          4.04367       -2.70437        0.07216
H          4.49460       -1.95325        1.63529
