39
2sa1eda1tma_05.log	Energy: -1107751.4767182
S         -0.51194        2.14422       -0.47332
O         -1.72104        1.70314        0.25980
O          0.69327        2.27115        0.33772
O         -0.35191        1.39063       -1.73956
O         -0.80519        3.67974       -0.92830
H         -1.51492        3.66612       -1.58403
S          0.79787       -1.79587       -0.91895
O          1.89983       -2.73967       -0.80753
O         -0.46278       -2.32589       -1.48225
O          0.50956       -1.04668        0.35085
O          1.34540       -0.67483       -1.93446
H          1.80643       -0.17582        0.87788
H          0.72372        0.09852       -1.93199
H         -2.75812       -2.51444        0.91280
H         -1.63350       -1.27777        1.50780
H         -3.83442       -1.16334        2.73763
H         -3.51799        0.31377        1.81662
H         -5.41139       -1.79202        1.07481
H         -5.63878       -0.17235        1.12482
H         -1.76523       -1.41453       -0.91374
H         -3.39389       -0.89043       -0.79317
C         -2.59014       -1.43815        1.00963
C         -3.74720       -0.75206        1.72324
N         -2.46991       -0.87582       -0.35516
N         -4.96190       -0.89633        0.91796
H         -2.15566        0.11622       -0.27824
N          2.76718        0.11871        1.21028
C          3.43699        0.80201        0.07176
H          3.45369        0.11752       -0.77651
H          2.85134        1.68410       -0.18480
H          4.45182        1.07369        0.37272
C          2.60419        1.01830        2.37730
H          2.02448        1.88551        2.06439
H          2.06763        0.48002        3.15972
H          3.59220        1.31287        2.73960
C          3.46459       -1.14217        1.57069
H          2.92856       -1.61505        2.39404
H          3.44460       -1.81029        0.70806
H          4.48918       -0.91019        1.87046
