27
2sa1tma_03.log	Energy: -988185.7108296
S          1.13992       -1.70191       -0.01262
O          2.00376       -2.81963       -0.33334
O          1.54006       -0.80709        1.07742
O          0.66738       -0.92061       -1.19294
O         -0.25642       -2.39365        0.58584
H         -0.34037       -3.27597        0.19857
S         -2.26624        0.40433        0.03091
O         -3.51407        1.09293       -0.12220
O         -1.12773        1.07083        0.65405
O         -2.56356       -0.92975        0.83603
O         -1.80896       -0.10904       -1.39123
H         -1.73829       -1.46341        0.91171
H         -0.86176       -0.44477       -1.35682
N          1.59958        1.78958        0.04822
C          0.96118        2.32382       -1.18237
H          1.03200        1.56297       -1.95908
H         -0.08457        2.53285       -0.96699
H          1.48646        3.23323       -1.48125
C          1.41751        2.69289        1.21318
H          0.34954        2.83732        1.36953
H          1.85469        2.21518        2.08996
H          1.91591        3.64247        1.00824
C          3.03053        1.46400       -0.18530
H          3.43322        0.99470        0.71077
H          3.09291        0.76214       -1.01684
H          3.56696        2.38538       -0.42059
H          1.13837        0.89590        0.30051
