39
2sa1eda1tma_98.log	Energy: -1107737.0777541
S          0.83962        2.08393        0.19194
O          1.12724        1.52063       -1.15603
O         -0.58313        2.12193        0.50266
O          1.70552        1.47238        1.22675
O          1.26840        3.64102        0.14027
H          2.23381        3.69438        0.11825
S          2.39750       -1.51936       -0.40812
O          3.19117       -2.69559       -0.61126
O          0.93915       -1.60769       -0.51315
O          2.75628       -0.93917        1.01501
O          2.89065       -0.40419       -1.41152
H          2.33812       -0.03913        1.14807
H          2.26566        0.38014       -1.37929
H         -1.77340       -0.89238       -2.89012
H         -2.06231       -2.06197       -1.59372
H         -4.22595       -1.22982       -2.51147
H         -4.03221       -0.74306       -0.82623
H         -3.67869        1.02094       -3.13603
H         -4.59008        1.25394       -1.79471
H         -0.38943       -0.36115       -1.04286
H         -1.58197        0.81320       -1.10531
C         -2.18330       -1.01600       -1.88370
C         -3.64473       -0.58405       -1.83877
N         -1.39767       -0.18328       -0.95482
N         -3.73342        0.83995       -2.13971
H         -1.64089       -0.40816        0.07300
N         -1.99149       -0.81543        1.65620
C         -2.89630        0.22095        2.15059
H         -2.42154        1.19711        2.02821
H         -3.82544        0.20733        1.57099
H         -3.14783        0.06929        3.21246
C         -2.60393       -2.13902        1.71912
H         -3.52887       -2.15157        1.13292
H         -1.91408       -2.88013        1.30591
H         -2.84909       -2.42938        2.75366
C         -0.72117       -0.79444        2.38825
H         -0.03443       -1.52071        1.94715
H         -0.27220        0.19714        2.30940
H         -0.87062       -1.03717        3.45232
