30
2sa1a1eda_199.log	Energy: -1033731.1971225
S          2.09394       -0.61941        0.23016
O          2.99936       -1.73598        0.09906
O          0.92610       -0.74269        1.09397
O          2.85899        0.66083        0.68493
O          1.61097       -0.27961       -1.24220
H          3.83323        0.64421        0.29794
H          0.86799        0.37563       -1.21421
S         -1.45959        1.64264       -0.10316
O         -0.31091        1.59419       -0.99024
O         -2.79293        1.37000       -0.58582
O         -1.16987        0.84718        1.21168
O         -1.46893        3.14212        0.46682
H         -0.43013        0.18285        1.09214
H         -2.38070        3.38413        0.68262
H         -2.06446       -3.40528       -0.68899
H         -0.96670       -2.76627        0.55589
H         -3.36179       -2.91767        1.25958
H         -2.66540       -1.29892        1.42928
H         -4.95651       -1.61693        0.28405
H         -3.89533       -0.59357       -0.41505
H         -0.49610       -1.71176       -1.50054
H         -2.03832       -1.23030       -1.69146
C         -1.78544       -2.50362       -0.12260
C         -2.98910       -2.05406        0.69864
N         -1.32402       -1.41727       -0.99193
N         -4.05656       -1.56845       -0.17815
N          5.25397        0.42607       -0.28794
H          5.38681        0.84820       -1.20175
H          5.31972       -0.58399       -0.39395
H          6.00933        0.73307        0.31674
