31
2sa1a1tma_09.log	Energy: -1023691.9413820
S          1.08869       -1.77716       -0.30227
O          1.33625       -0.80139        0.83097
O          2.17616       -2.69861       -0.52518
O         -0.26366       -2.36875       -0.12803
O          1.01097       -0.84937       -1.60893
H          0.19457       -0.28164       -1.53709
S         -2.20646        0.58469       -0.27782
O         -3.34340        1.35017       -0.72895
O         -0.93714        0.81950       -1.03265
O         -1.93265        0.70321        1.19172
O         -2.57176       -0.96217       -0.53094
H         -1.40102       -0.51506        1.97172
H         -1.75151       -1.51090       -0.50191
N         -0.84470       -1.33202        2.39833
H         -0.95719       -1.40386        3.40437
H          0.13787       -1.15579        2.10100
H         -1.11742       -2.19482        1.92430
N          1.72744        1.80819        0.16583
C          1.71511        2.23622       -1.25860
H          2.26711        1.50172       -1.84480
H          0.68016        2.27036       -1.59592
H          2.18536        3.21936       -1.33033
C          0.85198        2.66598        1.00486
H         -0.16584        2.59040        0.62588
H          0.88185        2.29763        2.03040
H          1.21648        3.69449        0.96166
C          3.11022        1.72568        0.69808
H          3.07277        1.32990        1.71242
H          3.68461        1.04326        0.07192
H          3.55861        2.72117        0.69016
H          1.35674        0.83220        0.23842
