39
2sa1eda1tma_07.log	Energy: -1107751.9094863
S         -0.66275       -1.59718       -1.01887
O         -0.33625       -1.06726        0.37018
O          0.45176       -2.40667       -1.51491
O         -1.99936       -2.16725       -1.08224
O         -0.76287       -0.26674       -1.91730
H          0.04134        0.30168       -1.78693
S          1.17053        2.22961       -0.18590
O         -0.17872        2.82487       -0.06363
O          1.69007        1.64361        1.04715
O          1.29797        1.35827       -1.37732
O          2.17715        3.47609       -0.46196
H          1.90568        3.90341       -1.28562
H         -3.63908        1.93376       -0.08495
H         -2.77277        0.71098       -1.04951
H         -4.98937       -0.16119       -0.23015
H         -3.62077       -1.09292        0.37252
H         -5.23116        0.81015        1.91730
H         -4.73748       -0.69242        2.32804
H         -1.38918        1.83387        0.65603
H         -2.39055        1.07800        1.82942
C         -3.16364        0.94913       -0.05956
C         -4.12259       -0.12332        0.44124
N         -2.01494        1.03066        0.87806
N         -4.46324        0.15175        1.84059
H         -1.41131        0.17604        0.79301
N          2.27903       -1.57451        0.92893
C          2.73620       -0.98799        2.21288
H          2.74444        0.09610        2.11051
H          2.03825       -1.28203        2.99783
H          3.73384       -1.37197        2.43830
C          2.17378       -3.05376        1.00821
H          1.48899       -3.31200        1.81668
H          1.77355       -3.41831        0.06238
H          3.16439       -3.46972        1.20590
C          3.13579       -1.15037       -0.21081
H          2.70159       -1.55602       -1.12450
H          3.13327       -0.06271       -0.25641
H          4.14578       -1.53504       -0.05008
H          1.30500       -1.22533        0.73198
