39
2sa1eda1tma_08.log	Energy: -1107751.3888103
S          0.69134        1.90576       -0.40496
O         -0.68294        2.28409       -0.10121
O          1.52465        1.55267        0.76395
O          0.85177        0.91004       -1.49655
O          1.32312        3.28269       -1.00809
H          2.15382        3.06179       -1.44860
S         -0.94821       -1.90945       -0.49603
O         -2.18745       -2.67195       -0.51952
O         -0.85060       -0.94087        0.64699
O          0.30741       -2.68817       -0.58099
O         -1.03388       -0.98656       -1.80996
H         -0.33085       -0.28920       -1.76564
H          3.60202       -1.97556       -0.62081
H          2.88109       -0.43818       -1.15140
H          5.23612       -0.08793       -0.33402
H          4.05000        0.76434        0.66880
H          5.45624       -1.69604        1.40302
H          5.24963       -0.32622        2.27443
H          1.45162       -1.81005        0.30023
H          2.57494       -1.50105        1.55441
C          3.28338       -0.98152       -0.29498
C          4.41832       -0.22633        0.38543
N          2.17921       -1.15602        0.67617
N          4.80855       -0.94126        1.60188
H          1.73466       -0.23181        0.85120
N         -3.10003        0.46735        0.81258
C         -3.98697       -0.62548        1.28471
H         -3.90685       -1.46042        0.58678
H         -3.64558       -0.95170        2.26764
H         -5.01232       -0.25293        1.34489
C         -3.03940        1.59424        1.77348
H         -2.71660        1.20744        2.74086
H         -2.31198        2.31763        1.40727
H         -4.03225        2.04211        1.86317
C         -3.47064        0.91706       -0.55485
H         -2.74260        1.66142       -0.87504
H         -3.42889        0.05655       -1.22334
H         -4.47921        1.33702       -0.52668
H         -2.13205        0.03792        0.74451
