31
2sa1ma1dma_52.log	Energy: -1023681.5172888
S         -0.78529        1.99033        0.25040
O         -1.86826        2.93355        0.26152
O          0.56015        2.76979        0.44925
O         -0.81897        0.84146        1.14871
O         -0.68408        1.42477       -1.23748
H         -1.67525       -1.48567        0.13748
H          0.04229        0.73835       -1.27843
S          2.44504       -0.26360       -0.37648
O          3.60018       -0.69217       -1.13363
O          1.12200       -0.47152       -1.03655
O          2.27020       -1.32851        0.87363
O          2.54831        1.06783        0.24973
H          3.10381       -1.35721        1.36234
H          1.34291        2.13901        0.43900
N         -3.05803       -0.61084       -0.45407
H         -3.30641       -0.00185        0.32197
C         -4.24706       -1.28878       -0.98262
H         -5.02828       -0.59798       -1.31962
H         -3.95734       -1.91893       -1.82722
H         -4.66897       -1.93696       -0.21040
H         -2.65776        0.00941       -1.15596
N         -0.76158       -1.93731        0.45078
C         -0.50901       -3.16128       -0.33441
C         -0.77200       -2.14344        1.91260
H         -0.03378       -1.25040        0.19938
H         -1.28491       -3.89771       -0.11776
H         -0.51906       -2.90497       -1.39369
H          0.47235       -3.55864       -0.07259
H         -1.57338       -2.83876        2.16968
H          0.19174       -2.55016        2.22050
H         -0.93449       -1.17876        2.39072
