31
2sa1a1tma_18.log	Energy: -1023686.4986472
S          2.50330       -0.93081       -0.09130
O          2.20988       -2.17138       -0.82643
O          2.42716        0.28443       -0.93732
O          1.76930       -0.77738        1.17329
O          4.05418       -1.04791        0.38028
H          4.56935       -1.38210       -0.36660
S         -3.00449       -0.39248       -0.15256
O         -1.58769       -0.12844       -0.55478
O         -4.00908        0.15594       -1.04691
O         -3.18178       -1.78613        0.27459
O         -3.07317        0.52043        1.22347
H         -4.00091        0.58349        1.48599
N         -0.36750       -2.38249        0.22667
H         -1.16983       -2.99975        0.34637
H         -0.74772       -1.47718       -0.16712
H          0.08312       -2.15096        1.11509
H          0.37239       -2.74497       -0.38753
N          0.78032        2.22022       -0.02034
C         -0.17811        2.63556       -1.07865
H          0.36996        2.76459       -2.01257
H         -0.92778        1.85018       -1.18511
H         -0.64454        3.57743       -0.78154
C          0.09661        1.94643        1.27223
H         -0.70703        1.23399        1.09429
H          0.82472        1.52069        1.96212
H         -0.30932        2.88484        1.65694
C          1.88728        3.19301        0.14203
H          2.58798        2.80548        0.88175
H          2.39860        3.30652       -0.81375
H          1.47705        4.15004        0.47119
H          1.24806        1.33954       -0.34532
