36
2sa1dma1eda_248.log	Energy: -1083055.1091366
S         -2.71109       -1.14597        0.15667
O         -3.73222       -0.23752        0.62674
O         -1.66729       -1.62732        1.04064
O         -3.47217       -2.48313       -0.32087
O         -2.12038       -0.63115       -1.18829
H         -4.36583       -2.24238       -0.60238
H         -1.10557       -0.58244       -1.17990
S          1.52102       -0.60583       -0.36273
O          0.42944       -0.67075       -1.35003
O          1.88109        0.74832        0.08542
O          1.04107       -1.42096        0.92760
O          2.73284       -1.35188       -0.80756
H          0.05748       -1.41975        0.99498
H          3.98467       -0.63836       -0.35477
N          4.83604       -0.07703        0.01719
C          4.67235        0.07226        1.48468
C          4.89339        1.21445       -0.71099
H          5.66872       -0.62872       -0.18406
H          3.74254        0.61509        1.65539
H          4.59723       -0.91937        1.93117
H          5.52421        0.61435        1.89889
H          3.93933        1.71781       -0.55207
H          5.72342        1.81475       -0.33402
H          5.02453        1.01148       -1.77393
H         -0.72737        3.55651        0.49798
H         -0.22165        2.44350       -0.79189
H         -2.32680        3.69614       -1.27814
H         -2.51681        1.93499       -1.35836
H         -4.21720        3.34829       -0.05161
H         -3.67615        1.98228        0.64881
H         -0.02570        1.32797        1.23417
H         -1.57109        1.64666        1.67541
C         -0.97866        2.61653       -0.01935
C         -2.34379        2.78000       -0.67678
N         -0.96740        1.46131        0.87908
N         -3.39230        2.90798        0.33898
