25
2sa1a1ma_34.log	Energy: -974363.1091665
S          2.15978       -0.46409        0.28753
O          3.50025       -0.50315        0.82484
O          1.14372        0.23517        1.13394
O          2.18655        0.57736       -0.99350
O          1.64687       -1.73804       -0.24817
H          2.87029        0.28133       -1.60955
H          0.10871       -2.21590       -0.43509
S         -1.71085       -1.11467       -0.28367
O         -3.10582       -1.45029       -0.25889
O         -0.87399       -2.42965       -0.43525
O         -1.22492       -0.12796       -1.24642
O         -1.33872       -0.59264        1.17622
H         -0.39296        1.52811       -0.95222
H         -0.36631       -0.34555        1.22926
N         -0.16225        2.26094       -0.26544
H         -1.05994        2.43057        0.26379
C          0.41228        3.47242       -0.87944
H          0.62155        4.20608       -0.10116
H          1.33699        3.20480       -1.38938
H         -0.30020        3.88770       -1.59217
H          0.49866        1.78802        0.37274
N         -2.63589        2.24236        1.11666
H         -2.94285        2.90530        1.82140
H         -2.51532        1.33767        1.57076
H         -3.39980        2.12798        0.45584
