25
2sa1a1ma_06.log	Energy: -974372.3011448
S         -2.09357       -0.52026        0.23924
O         -1.84637       -1.95253        0.53365
O         -1.40699       -0.17077       -1.05639
O         -3.45687       -0.05043        0.34048
O         -1.28762        0.32430        1.35665
H         -0.36089       -0.01172        1.41615
S          2.17135        0.00580        0.17122
O          1.28186       -0.51866        1.21209
O          2.19394       -0.83199       -1.04913
O          2.00567        1.44352       -0.13158
O          3.63709       -0.12355        0.84281
H          4.27552        0.32205        0.26923
N         -0.43192        2.29834       -1.04814
H         -0.33161        2.70273       -1.97623
H         -0.89688        1.34579       -1.13588
C         -1.21043        3.17554       -0.14016
H         -1.29868        2.66510        0.81795
H         -0.69747        4.12980       -0.02125
H         -2.20549        3.32682       -0.55792
H          0.52153        2.08998       -0.67663
N          0.10267       -2.59423       -1.17400
H          0.93235       -1.96075       -1.06912
H         -0.39110       -2.31825       -2.02106
H          0.39406       -3.56601       -1.22528
H         -0.58410       -2.43516       -0.38010
