33
2sa1ma1eda_132.log	Energy: -1058415.1870609
S          3.03577        0.32780        0.11586
O          3.34085       -1.20836        0.09535
O          4.27269        1.04525        0.18669
O          2.35490        0.62067       -1.27485
O          2.00860        0.58046        1.14878
H          1.41950        0.22192       -1.27223
H          0.45845        1.57965        0.68005
S         -0.19548       -1.53973       -0.15896
O         -1.47471       -2.18560       -0.35456
O         -0.02709       -0.28374       -0.96324
O         -0.26438       -1.02199        1.38889
O          1.01728       -2.37810       -0.24069
H          0.59438       -0.60567        1.60020
H          2.49052       -1.73826       -0.02458
N         -0.30432        2.25972        0.54241
H         -1.27649        1.73327        0.68492
C         -0.23805        2.84831       -0.81521
H         -1.01393        3.60842       -0.91202
H          0.74378        3.28943       -0.98764
H         -0.41285        2.04797       -1.53274
H         -0.19643        2.97418        1.25978
H         -3.55389        1.63861       -0.93694
H         -2.47173        0.26324       -1.22070
H         -4.81608       -0.45813       -1.47252
H         -4.05489       -1.24976       -0.09070
H         -6.01612        0.92116        0.03227
H         -6.00281       -0.49436        0.84532
H         -3.34772        1.17358        1.41306
H         -2.25314        0.00469        1.12613
C         -3.22937        0.66623       -0.54465
C         -4.41827       -0.28645       -0.46219
N         -2.60623        0.89453        0.77051
N         -5.41031        0.24055        0.47838
