36
2sa1dma1eda_45.log	Energy: -1083091.7893178
S         -0.67139        1.89430       -0.68930
O          0.69733        1.59562       -1.19731
O         -1.69846        1.08781       -1.37728
O         -0.76054        1.92305        0.76619
O         -0.96180        3.43150       -1.12281
H         -0.97903        3.47562       -2.08879
S          1.39302       -2.00341       -0.37786
O          2.56409       -2.81386       -0.11735
O          0.24494       -2.69192       -1.00878
O          0.91611       -1.18292        0.78299
O          1.92229       -0.89471       -1.44754
H          1.79483        0.15724        1.08178
H          1.29017       -0.14858       -1.52034
N          2.32535        1.07007        1.02657
C          3.74398        0.77656        0.72480
C          2.09914        1.87281        2.24550
H          1.87431        1.52423        0.21251
H          4.17408        0.21774        1.55681
H          3.78133        0.17004       -0.18047
H          4.28488        1.71360        0.58238
H          2.48288        1.32502        3.10744
H          2.62038        2.82728        2.15223
H          1.02721        2.04322        2.34286
H         -2.18217       -2.15979        1.58874
H         -1.35236       -0.60575        1.38226
H         -3.63973       -0.27831        2.38858
H         -3.48169        0.50496        0.81482
H         -4.94877       -1.96932        1.35920
H         -5.42137       -0.65834        0.50384
H         -1.23986       -2.04388       -0.61084
H         -2.95167       -1.89997       -0.70222
C         -2.21449       -1.19630        1.07327
C         -3.52913       -0.46770        1.31344
N         -2.08418       -1.46156       -0.38157
N         -4.62604       -1.24330        0.72855
H         -1.97416       -0.55458       -0.87810
