30
2sa1a1eda_98.log	Energy: -1033765.9060831
S          2.12270       -0.95287       -0.00056
O          0.80830       -1.71335        0.10507
O          2.09330        0.13756        1.00655
O          3.28097       -1.80913       -0.00493
O          2.06204       -0.25713       -1.44181
H          1.47379        0.54245       -1.41033
S         -0.45283        2.20563       -0.14486
O         -1.33364        1.09591        0.41163
O          0.21463        1.66958       -1.36003
O         -1.13212        3.46868       -0.27856
O          0.68093        2.40794        0.96030
H          1.30091        1.63185        0.94944
H         -3.23542       -1.34913       -1.75022
H         -2.10341       -2.68594       -2.06283
H         -3.18549       -3.20155        0.01932
H         -1.52515       -2.75975        0.36027
H         -2.78462       -0.40952        0.73803
H         -3.97325       -1.45094        1.15384
H         -1.00353       -0.56438       -2.42088
H         -1.35635       -0.04079       -0.88135
C         -2.33078       -1.85045       -1.39672
C         -2.49289       -2.35649        0.03660
N         -1.19969       -0.88947       -1.47550
N         -2.97335       -1.37247        1.01339
H         -0.32495       -1.30587       -1.06158
N         -0.47399       -0.67409        2.28032
H         -1.38146       -1.14690        2.39740
H          0.03330       -0.54186        3.15038
H          0.10830       -1.20039        1.58260
H         -0.68450        0.23191        1.81019
