39
2sa1eda1tma_44.log	Energy: -1107750.8784694
S          0.27918        2.02964       -0.79087
O          1.26896        1.00129       -1.28737
O         -0.15331        1.63603        0.57375
O          0.70807        3.39947       -0.95548
O         -1.00692        1.85855       -1.74043
H         -1.30090        0.91731       -1.68902
S         -0.79617       -1.83744       -0.87363
O         -1.70799       -0.68932       -1.17289
O         -0.40597       -1.76479        0.57170
O         -1.26730       -3.13455       -1.30068
O          0.54560       -1.55141       -1.71508
H          0.75338       -0.58015       -1.70396
H          3.19312       -2.19142        1.16866
H          2.88384       -1.77524       -0.52870
H          5.23265       -1.15451        0.12800
H          4.27958        0.26831       -0.30059
H          5.07384       -0.51864        2.39517
H          5.07549        0.96425        1.70341
H          1.09105       -1.02334        0.94822
H          2.24052       -0.01616        1.73361
C          3.11887       -1.36612        0.45539
C          4.39088       -0.52584        0.44447
N          1.99234       -0.50089        0.86843
N          4.56858        0.08967        1.76058
H          1.80574        0.21918        0.13140
N         -2.53612        0.23106        1.35019
C         -3.21227        1.49427        0.95731
H         -2.46175        2.28277        0.92718
H         -3.64056        1.36001       -0.03587
H         -3.99612        1.71632        1.68446
C         -3.46200       -0.92966        1.31742
H         -3.87918       -1.01305        0.31487
H         -2.89269       -1.83101        1.54385
H         -4.25041       -0.77244        2.05653
C         -1.84982        0.34840        2.65932
H         -1.32155       -0.58680        2.84463
H         -1.14146        1.17288        2.59789
H         -2.59790        0.52636        3.43501
H         -1.81148        0.05264        0.63140
