30
2sa1a1eda_27.log	Energy: -1033764.9962697
S          2.35693       -1.00342       -0.08256
O          2.94559        0.29132        0.27178
O          2.12800       -1.90410        1.06957
O          1.16969       -0.91992       -0.96071
O          3.43620       -1.75327       -1.03821
H          4.28478       -1.77399       -0.57510
S         -2.82493       -0.18458       -0.12445
O         -2.73734        0.98274       -1.02017
O         -2.78135       -1.48623       -0.79864
O         -1.88104       -0.10430        1.02044
O         -4.26930       -0.07334        0.61350
H         -4.95176       -0.02736       -0.06987
H          1.86648        2.01806       -1.23788
H          0.58832        3.11372       -1.81362
H          2.14387        4.05626        0.00535
H          0.41937        4.16638        0.38958
H          2.16415        2.01574        1.39447
H          1.39118        3.18546        2.28505
H          0.26852        0.58357       -0.84913
H         -0.06072        1.50540        0.47935
C          0.95893        2.55377       -0.95437
C          1.24848        3.46550        0.24255
N         -0.04141        1.53010       -0.55504
N          1.35928        2.63798        1.43533
H         -1.01019        1.66685       -0.88565
N         -0.55751       -2.46862        0.82812
H          0.46823       -2.39292        1.01520
H         -0.71378       -2.54476       -0.17953
H         -0.97955       -3.26148        1.30252
H         -1.04142       -1.57797        1.10307
