31
2sa1a1tma_25.log	Energy: -1023681.3759987
S         -1.03074       -1.02969       -0.47645
O         -2.27277       -1.73923       -0.76759
O          0.15327       -1.46006       -1.24092
O         -1.20750        0.45769       -0.53230
O         -0.74572       -1.36763        1.06966
H         -2.64576        0.77147       -0.15780
H          0.14494       -1.02292        1.31455
S          2.81301       -0.10834        0.57590
O          4.19718       -0.23091        0.97723
O          1.75795       -0.39715        1.53729
O          2.54163        1.34692        0.04917
O          2.63755       -1.01862       -0.69414
H          3.36707        1.65702       -0.47931
H          1.66225       -1.15790       -0.92154
N          4.80872        1.90202       -1.18517
H          4.84725        1.54880       -2.13600
H          5.40871        1.31586       -0.60847
H          5.17735        2.84698       -1.17919
N         -3.67318        0.95191        0.12795
C         -3.92720        0.11315        1.32630
H         -3.76660       -0.92989        1.05301
H         -3.21378        0.39019        2.10278
H         -4.95110        0.27575        1.67202
C         -3.79602        2.39548        0.42309
H         -3.10451        2.65124        1.22648
H         -3.53362        2.96249       -0.47069
H         -4.82175        2.62347        0.72336
C         -4.51333        0.53517       -1.02041
H         -4.24529        1.14044       -1.88720
H         -4.29580       -0.51217       -1.23155
H         -5.56799        0.67934       -0.77233
