28
2sa2ma_55.log	Energy: -999013.7384237
S         -2.09086       -0.40224       -0.05515
O         -3.36398       -1.14340       -0.21958
O         -1.17986       -0.50107       -1.20403
O         -2.35506        1.01316        0.34385
O         -1.39506       -1.11645        1.18203
H         -3.94098        1.18734        0.66058
H         -0.43171       -0.86635        1.23003
S          2.09111       -0.40304        0.05513
O          3.36437       -1.14388        0.21909
O          1.18031       -0.50219        1.20412
O          2.35496        1.01263       -0.34359
O          1.39512       -1.11687       -1.18214
H          3.93923        1.18679       -0.65877
H          0.43185       -0.86642       -1.23012
N         -4.93740        0.82215        0.57034
H         -4.68880       -0.17213        0.34754
C         -5.64273        1.46406       -0.55826
H         -6.60944        0.98511       -0.71327
H         -5.77752        2.52551       -0.35167
H         -5.02474        1.34028       -1.44718
H         -5.43950        0.88720        1.45162
N          4.93675        0.82329       -0.57031
H          4.69045       -0.17167       -0.34897
C          5.64226        1.46465        0.55848
H          6.60999        0.98718        0.71173
H          5.77496        2.52664        0.35334
H          5.02551        1.33845        1.44792
H          5.43767        0.89078       -1.45209
