22
2sa2a_37.log	Energy: -949695.1054585
S          2.13007       -0.26377        0.05303
O          1.88719        0.14014       -1.32848
O          2.03754        0.84813        1.02448
O          1.35792       -1.45785        0.49599
O          3.67012       -0.75841        0.06587
H          3.85037       -1.17555        0.91955
S         -1.95909       -0.84128       -0.16010
O         -3.17214       -1.18774       -0.85601
O         -1.38705        0.48749       -0.29818
O         -2.22309       -0.96036        1.43005
O         -0.90660       -1.93978       -0.44133
H         -2.72137       -1.77234        1.60249
H          0.03781       -1.71640       -0.06433
N          0.58211        2.55214       -0.55784
H         -0.32471        2.96629       -0.20314
H          1.16396        3.23922       -1.02859
H          1.12593        2.10313        0.21376
H          0.38887        1.77566       -1.19885
N         -1.94190        3.31227        0.42549
H         -2.26734        2.34824        0.35851
H         -2.58410        3.89743       -0.09895
H         -1.99764        3.59120        1.39990
