38
2sa2eda_171.log	Energy: -1117815.6237199
S         -0.52718        2.30953       -0.28866
O         -1.79196        2.14920       -1.00885
O         -0.54171        1.74286        1.07469
O          0.65895        1.91929       -1.08611
O         -0.32346        3.90016        0.00044
H         -0.25138        4.34517       -0.85474
S          0.65990       -1.64735       -0.85333
O          1.70288       -2.69713       -0.91768
O         -0.68976       -2.06868       -1.27195
O          0.63320       -0.98460        0.47009
O          1.18731       -0.55743       -1.90229
H          2.62531       -1.23566        1.66624
H          0.85918        0.35033       -1.66053
H         -3.86286        0.61489        0.91705
H         -3.39373        0.35374       -0.76480
H         -5.40594       -1.04667       -0.16565
H         -4.01924       -2.06288       -0.57121
H         -5.02625       -1.55517        2.12808
H         -4.64471       -2.98131        1.42166
H         -1.52837        0.23539        0.89162
H         -2.26627       -1.17201        1.46568
C         -3.49935       -0.13090        0.20533
C         -4.40646       -1.35408        0.16796
N         -2.15443       -0.56118        0.65103
N         -4.38755       -2.00375        1.48019
H         -1.67427       -1.12051       -0.08430
H          2.63951        0.71478       -0.27932
H          3.96035        1.60908        0.45703
H          4.60881       -0.74068       -0.38182
H          4.98702       -0.42172        1.33195
H          2.79200       -2.11039        0.23316
H          3.84923       -2.38733        1.51571
H          2.83467        1.50160        2.44867
H          1.53017        0.96260        1.59783
C          3.30522        0.74077        0.58318
C          4.18284       -0.52144        0.59846
N          2.51225        0.78868        1.80713
N          3.32777       -1.66427        1.02780
