38
2sa2eda_144.log	Energy: -1117819.5524249
S         -0.68184        2.33034        0.35541
O         -0.18673        2.44511       -1.02527
O         -2.02580        1.77918        0.51588
O          0.31809        1.69233        1.26222
O         -0.75145        3.88456        0.83049
H         -1.15799        3.91067        1.70721
S          0.63753       -1.74001        0.91943
O          2.06195       -1.53882        1.19935
O          0.08018       -3.07855        1.11260
O         -0.20677       -0.83757        1.94231
O          0.29550       -1.19318       -0.44945
H         -0.01252        0.12389        1.78000
H         -1.26483       -1.74357       -0.72583
H          3.29978        0.90545       -2.51612
H          3.75779        2.05956       -1.23617
H          5.35152        0.17082       -1.37302
H          4.53517        0.18502        0.19112
H          4.67415       -1.98212       -1.33675
H          3.35160       -1.70206       -0.40439
H          1.36402        1.56081       -1.16296
H          1.66031       -0.05687       -0.97105
C          3.41737        1.04097       -1.43937
C          4.38688        0.00303       -0.88446
N          2.07785        0.88259       -0.82947
N          3.90909       -1.34012       -1.17643
H          2.08162        1.01402        0.18832
H         -3.90741       -1.70404        0.62781
H         -2.53871       -0.57201        0.83254
H         -4.32361        0.41490       -0.63179
H         -2.78994        0.23807       -1.46113
H         -5.15359       -1.44955       -1.85040
H         -4.17997       -0.77050       -2.97072
H         -1.89451       -2.91596        0.20871
H         -2.63980       -2.59349       -1.28784
C         -3.09781       -1.17530        0.11701
C         -3.62282       -0.32527       -1.03210
N         -2.18061       -2.19419       -0.46173
N         -4.18997       -1.20877       -2.05758
