22
2sa2a_31.log	Energy: -949699.2449941
S          1.85382       -0.73108        0.06409
O          3.19888       -0.20468       -0.14478
O          0.88714       -0.30702       -0.98663
O          1.91509       -2.33582       -0.15814
O          1.31293       -0.51703        1.42179
H          2.64060       -2.69124        0.37357
H          0.54558        1.11406        1.44592
S         -2.42976       -0.05923       -0.17416
O         -3.78858       -0.50703       -0.29289
O         -2.09266        1.34379       -0.36563
O         -1.87647       -0.33183        1.32177
O         -1.53647       -0.98490       -1.04704
H         -1.89455       -1.27800        1.52615
H         -0.53921       -0.71754       -1.02329
N          2.14966        2.57485       -0.83750
H          1.70006        2.23508       -1.68449
H          2.88496        1.89692       -0.63058
H          2.58438        3.46677       -1.04977
N          0.23597        2.04890        1.10943
H         -0.66489        1.92615        0.61844
H          0.96992        2.38913        0.40699
H          0.12985        2.69349        1.88699
