40
2sa2tma_15.log	Energy: -1097668.9459355
S          2.69005        0.81630       -0.01222
O          2.52108        2.27042       -0.02756
O          2.65926        0.19942        1.32301
O          1.83399        0.08638       -0.98134
O          4.18597        0.52869       -0.61852
H          4.79191        1.16085       -0.20989
S         -2.93514       -0.68375       -0.19173
O         -1.51467       -0.74729       -0.57056
O         -3.41192        0.72242       -0.09562
O         -3.84764       -1.58580       -0.87545
O         -2.86851       -1.21233        1.37393
H         -3.76344       -1.46719        1.63383
N          1.19988       -2.34576       -0.00938
C          0.54683       -2.27086        1.32414
H          1.12867       -1.58295        1.93863
H         -0.46915       -1.90035        1.19244
H          0.53458       -3.27062        1.76502
C          0.40591       -3.14242       -0.97830
H         -0.57140       -2.67129       -1.08294
H          0.92588       -3.14101       -1.93698
H          0.31257       -4.16424       -0.60318
C          2.59776       -2.83307        0.09983
H          3.06717       -2.77233       -0.88231
H          3.13221       -2.18590        0.79557
H          2.58821       -3.86606        0.45495
H          1.27819       -1.36433       -0.38488
N         -1.27682        2.35472        0.01840
C         -0.53343        2.26283       -1.26803
H         -0.29717        1.21533       -1.44832
H         -1.17501        2.65081       -2.06039
H          0.39312        2.83362       -1.18661
C         -1.73824        3.73310        0.29252
H         -2.36904        4.06691       -0.53197
H         -2.31639        3.73726        1.21733
H         -0.87027        4.38852        0.38945
C         -0.48923        1.80382        1.15336
H         -1.10742        1.83838        2.05149
H         -0.24532        0.76933        0.91676
H          0.42627        2.38385        1.27583
H         -2.13224        1.74228       -0.06806
