40
2sa2tma_03.log	Energy: -1097676.8558868
S          0.64548       -1.96338       -0.67352
O          0.37077       -1.01060        0.46879
O          2.02629       -2.43800       -0.67608
O         -0.40389       -2.98196       -0.75625
O          0.53947       -1.02388       -1.97943
H         -0.12668       -0.31130       -1.81702
S         -0.65926        2.05550       -0.46823
O         -0.68264        1.77574        0.96838
O          0.60926        2.57023       -0.99400
O         -1.22574        0.95085       -1.29016
O         -1.74730        3.26909       -0.61613
H         -1.69388        3.60505       -1.52097
N          2.60643        0.47806        0.80675
C          2.48996        1.76360        1.53828
H          1.91854        2.45915        0.92522
H          1.96286        1.58880        2.47604
H          3.49484        2.14739        1.73115
C          3.36701       -0.53772        1.57715
H          2.89070       -0.66721        2.54967
H          3.33538       -1.47713        1.02364
H          4.39466       -0.19007        1.70551
C          3.17998        0.66895       -0.55509
H          3.21058       -0.30176       -1.05055
H          2.52915        1.35112       -1.10219
H          4.18436        1.08696       -0.45150
H          1.64454        0.06495        0.68066
N         -2.43405       -0.86399        0.80800
C         -2.22945       -1.98527        1.76162
H         -1.63232       -2.74864        1.26256
H         -1.69514       -1.60544        2.63219
H         -3.20491       -2.37937        2.05524
C         -3.19035        0.25389        1.42490
H         -2.62274        0.64461        2.26723
H         -3.31211        1.04550        0.68746
H         -4.16270       -0.12614        1.74705
C         -3.08690       -1.33171       -0.44622
H         -3.12767       -0.49114       -1.13720
H         -2.47668       -2.13143       -0.86687
H         -4.08931       -1.68962       -0.20014
H         -1.47879       -0.52883        0.56275
