34
2sa2dma_41.log	Energy: -1048350.6617965
S         -2.75790       -0.90978       -0.36483
O         -1.46544       -0.78434       -1.12364
O         -3.77178       -1.71609       -0.99991
O         -2.37382       -1.69562        0.99056
O         -3.18451        0.45466        0.05907
H         -1.66701       -1.20041        1.45330
H         -1.93364        1.41954       -0.01590
S          1.06196       -0.36672        0.89617
O          2.29554       -0.81333        1.57097
O         -0.10980       -0.15427        1.75339
O          1.33927        0.84890        0.04446
O          0.73977       -1.53623       -0.12615
H          3.05202        0.54950       -0.60391
H         -0.15728       -1.33871       -0.57847
N          3.85585       -0.10170       -0.49340
C          5.13993        0.62121       -0.41366
C          3.78081       -1.14762       -1.54213
H          3.58959       -0.52516        0.42689
H          5.33814        1.11314       -1.36695
H          5.07770        1.36345        0.38197
H          5.93725       -0.08944       -0.19295
H          3.92376       -0.68637       -2.52017
H          4.55899       -1.88980       -1.36029
H          2.79667       -1.61437       -1.48032
N         -1.16499        2.14447       -0.14336
C         -1.15317        3.02846        1.03758
C         -1.40737        2.81949       -1.43166
H         -0.26434        1.63283       -0.18123
H         -2.13418        3.49339        1.14657
H         -0.93262        2.41548        1.91178
H         -0.38564        3.79553        0.91675
H         -2.38003        3.31228       -1.39830
H         -0.62200        3.55454       -1.61953
H         -1.41348        2.06043       -2.21402
