22
2sa2a_36.log	Energy: -949695.6045858
S          1.23448       -0.92431       -0.25275
O          0.00392       -1.74659       -0.24766
O          2.45784       -1.63098        0.09624
O          1.32947       -0.08517       -1.47638
O          1.06507        0.15112        0.96175
H          0.15175        0.51379        0.92371
S         -2.61022        0.38944        0.05987
O         -3.75716        1.07317       -0.47379
O         -1.43554        1.13957        0.47892
O         -3.03804       -0.40419        1.39485
O         -2.21714       -0.74452       -0.92865
H         -3.88204       -0.85291        1.24047
H         -1.30606       -1.16459       -0.69196
N          2.67975        2.07484       -0.72531
H          2.02692        2.68231       -0.23579
H          3.17554        2.60135       -1.43898
H          3.36018        1.61834       -0.01712
H          2.12997        1.26983       -1.15434
N          4.19711        0.61596        1.04062
H          5.21154        0.58055        1.03967
H          3.84359       -0.30805        0.77111
H          3.89519        0.76236        1.99983
