34
2sa2dma_18.log	Energy: -1048360.9010693
S          0.70311       -1.90251       -0.69636
O          1.17395       -3.23304       -0.99152
O         -0.69868       -1.60147       -1.14629
O          0.84799       -1.47939        0.73009
O          1.63596       -0.90515       -1.55209
H          1.66671       -0.05079        1.07245
H          1.24140        0.00241       -1.56056
S         -0.70294        1.90316       -0.69563
O          0.69860        1.60212       -1.14630
O         -1.17392        3.23375       -0.99040
O         -1.63628        0.90600       -1.55115
O         -0.84720        1.47984        0.73077
H         -1.24153       -0.00142       -1.56052
H         -1.66692        0.04976        1.07332
N          2.17828        0.86435        1.04853
C          3.59352        0.60767        0.70461
C          1.96612        1.61487        2.30281
H          1.70682        1.35584        0.25921
H          4.06176        0.04418        1.51286
H          3.61968        0.02377       -0.21582
H          4.10893        1.55889        0.56435
H          2.36461        1.03841        3.13921
H          2.48020        2.57519        2.23784
H          0.89486        1.77820        2.41880
N         -2.17857       -0.86513        1.04804
C         -3.59386       -0.60773        0.70479
C         -1.96616       -1.61766        2.30108
H         -1.70729       -1.35553        0.25788
H         -4.06191       -0.04553        1.51403
H         -3.62008       -0.02235       -0.21470
H         -4.10933       -1.55871        0.56309
H         -2.36481       -1.04273        3.13846
H         -2.47992       -2.57802        2.23448
H         -0.89484       -1.78080        2.41678
