34
2sa2dma_26.log	Energy: -1048357.2592741
S         -0.57150        1.99243       -0.10846
O          0.85270        1.99980        0.23641
O         -0.89868        1.21446       -1.32930
O         -1.51209        1.67839        0.98559
O         -0.83469        3.55189       -0.48072
H         -1.78684        3.67899       -0.58497
S          0.49467       -1.83448       -0.42082
O          1.74654       -2.59035       -0.30462
O         -0.71345       -2.57613       -0.83741
O          0.21614       -0.99120        0.76682
O          0.85150       -0.79695       -1.61611
H          1.90409        0.54473        0.31916
H          0.17127       -0.07851       -1.64556
N         -2.57729       -0.87502        0.40811
C         -3.74600       -0.49389       -0.40832
C         -2.89019       -1.55972        1.67904
H         -1.94579       -1.49707       -0.14164
H         -4.39011        0.16519        0.17557
H         -3.38055        0.03147       -1.29073
H         -4.29240       -1.39180       -0.70098
H         -3.50154       -0.90357        2.30027
H         -3.42428       -2.48715        1.46766
H         -1.94419       -1.77616        2.17473
H         -2.03036       -0.01764        0.62677
N          2.82150        0.06953        0.44498
C          3.18607        0.19182        1.87180
C          3.78363        0.65936       -0.50836
H          2.66667       -0.92729        0.21384
H          3.26503        1.24990        2.12310
H          2.39108       -0.27098        2.45579
H          4.13617       -0.31387        2.05006
H          3.86403        1.72862       -0.31086
H          4.75457        0.17581       -0.39127
H          3.39825        0.49588       -1.51440
