22
2sa2a_30.log	Energy: -949698.8687771
S         -2.11204       -0.57934        0.02959
O         -2.02386       -0.26245        1.46036
O         -3.13554        0.12378       -0.73949
O         -0.77517       -0.47689       -0.64048
O         -2.50217       -2.14907        0.01574
H         -2.90917       -2.34745       -0.83877
S          2.51283       -0.25519        0.04867
O          2.09077        0.82001        0.93153
O          3.81078       -0.85320        0.20909
O          1.45484       -1.38810       -0.00260
O          2.41207        0.41553       -1.41974
H          0.49580       -1.04113       -0.20380
H          2.83152       -0.17582       -2.06163
N         -0.40701        1.98276        1.44363
H         -0.42627        2.69796        2.16416
H         -0.73092        2.35907        0.49544
H          0.54747        1.60368        1.32952
H         -1.03821        1.19010        1.68193
N         -1.26577        2.54847       -1.13814
H         -0.60396        2.00278       -1.68516
H         -1.36809        3.45636       -1.57911
H         -2.15507        2.05145       -1.20856
