38
2sa2eda_257.log	Energy: -1117801.9635667
S          1.98916       -1.09154       -0.15421
O          3.21632       -1.88714       -0.31372
O          1.33645       -1.19067        1.15738
O          2.24930        0.34511       -0.53366
O          0.99047       -1.66552       -1.24449
H          3.68877        0.40933       -1.01937
H          0.05800       -1.36231       -1.05307
S         -2.08116       -0.65120        0.64247
O         -3.45587       -1.14705        0.76796
O         -1.46474       -0.90724       -0.67766
O         -2.00468        0.80490        0.99646
O         -1.24328       -1.43875        1.73013
H         -3.40277        1.37454        0.92330
H         -0.26848       -1.33348        1.55760
H         -5.48072        2.69543       -0.80129
H         -3.70140        2.83659       -0.91275
H         -4.75803        1.21889       -2.59839
H         -3.50176        0.49474       -1.59859
H         -6.16545       -0.33351       -1.73673
H         -4.99721       -0.87702       -0.69225
H         -4.67374        2.44106        1.39045
H         -5.03833        0.90568        0.82855
C         -4.53211        2.16400       -0.69026
C         -4.51364        0.91246       -1.57696
N         -4.41420        1.71959        0.72313
N         -5.47419       -0.05518       -1.05450
H          5.07555        2.74343       -0.77332
H          6.05014        2.68176        0.69509
H          6.63198        0.67966       -0.41418
H          5.42406        0.15784        0.78701
H          5.02226        0.50014       -2.11147
H          4.70617       -0.83992       -1.14329
H          3.81020        3.21974        1.31130
H          3.22682        1.80875        0.69003
C          5.20112        2.21126        0.18900
C          5.58802        0.76581       -0.10491
N          4.05220        2.26585        1.07421
N          4.73817        0.18863       -1.18589
