40
2sa2tma_10.log	Energy: -1097677.0379462
S          1.19748       -1.54883       -0.94728
O          0.69164       -1.36939        0.45215
O          1.71238       -0.23121       -1.42997
O          2.09936       -2.66712       -1.12203
O         -0.09119       -1.87794       -1.84231
H         -0.70140       -1.09560       -1.81433
S         -1.19720        1.54861       -0.94777
O         -0.69156        1.36929        0.45177
O         -1.71218        0.23100       -1.43036
O         -2.09891        2.66700       -1.12277
O          0.09167        1.87743       -1.84257
H          0.70182        1.09503       -1.81421
N         -2.07910       -0.97732        1.21287
C         -2.31610       -2.25510        0.49399
H         -2.70254       -2.02182       -0.49696
H         -1.36479       -2.77565        0.39919
H         -3.03884       -2.84554        1.06153
C         -1.49215       -1.20299        2.55367
H         -0.55127       -1.73642        2.42088
H         -1.31338       -0.23192        3.01670
H         -2.19049       -1.78386        3.15985
C         -3.30857       -0.14594        1.27483
H         -3.05584        0.81524        1.72138
H         -3.66294        0.01611        0.25749
H         -4.05929       -0.66911        1.87090
H         -1.37549       -0.42748        0.68067
N          2.07862        0.97766        1.21298
C          2.31576        2.25550        0.49420
H          2.70202        2.02226       -0.49683
H          1.36452        2.77621        0.39950
H          3.03867        2.84576        1.06172
C          1.49182        1.20328        2.55385
H          0.55085        1.73658        2.42121
H          1.31328        0.23219        3.01693
H          2.19016        1.78427        3.15990
C          3.30804        0.14622        1.27483
H          3.05534       -0.81497        1.72138
H          3.66236       -0.01582        0.25749
H          4.05880        0.66937        1.87088
H          1.37485        0.42799        0.68080
