28
2sa2ma_71.log	Energy: -999000.6113523
S         -2.84805       -0.37719       -0.08704
O         -3.66671        0.71326       -0.56331
O         -2.10002       -0.28204        1.15169
O         -3.82946       -1.63454        0.13754
O         -1.93883       -0.89675       -1.24573
H         -4.58457       -1.54034       -0.45977
H         -0.96596       -0.95095       -0.96938
S          1.42583       -0.40919        0.29082
O          1.99354        0.78901       -0.38839
O          0.52272       -1.19383       -0.56799
O          2.51139       -1.21861        0.89539
O          0.58041        0.10930        1.53333
H          3.98392       -0.47615        0.65583
H         -0.38279        0.11788        1.31929
N         -0.81700        1.92885       -0.65881
H          0.12899        1.94102       -1.02612
C         -0.99096        2.93409        0.38432
H         -0.86337        3.97399        0.04750
H         -1.99147        2.83358        0.81466
H         -0.26647        2.74479        1.18175
H         -1.46516        2.08329       -1.42308
N          4.54141        0.24863        0.12516
H          3.73929        0.84718       -0.18065
C          5.23096       -0.35922       -1.03457
H          5.70267        0.41915       -1.63365
H          5.97792       -1.07023       -0.68312
H          4.48125       -0.88024       -1.62936
H          5.16606        0.76111        0.74243
