34
2sa2dma_35.log	Energy: -1048352.2386211
S         -0.59375        1.46667       -0.00278
O         -0.97852        0.42545        1.02477
O          0.35408        2.46116        0.56085
O          0.08562        0.75734       -1.15849
O         -1.85929        2.11883       -0.47609
H         -2.96440        1.13087       -0.39887
S          0.94310       -2.23703        0.03945
O          1.09636       -3.66318       -0.03200
O          2.15223       -1.41085        0.15769
O          0.13238       -1.74535       -1.21278
O         -0.00345       -1.90684        1.25267
H          0.09890       -0.70756       -1.23469
H         -0.31738       -0.93456        1.21319
N          2.72794        1.29052        0.07645
C          3.74156        1.47567        1.13213
C          3.15944        1.69162       -1.27872
H          2.44080        0.29202        0.05376
H          3.99189        2.53475        1.21009
H          3.32609        1.12563        2.07700
H          4.63324        0.89637        0.88725
H          3.42572        2.74978       -1.27037
H          4.01842        1.08912       -1.57903
H          2.31990        1.52409       -1.95326
H          1.84743        1.82228        0.31833
N         -3.74396        0.36503       -0.31391
C         -4.12604        0.25084        1.11361
C         -3.22582       -0.89821       -0.89601
H         -4.53791        0.69247       -0.86185
H         -3.21839        0.02317        1.67271
H         -4.52400        1.20924        1.44771
H         -4.87349       -0.53536        1.23720
H         -2.37768       -1.22683       -0.29673
H         -4.01004       -1.65729       -0.89269
H         -2.88658       -0.70330       -1.91338
