40
2sa2tma_18.log	Energy: -1097668.3249144
S         -2.72364        0.75106       -0.06546
O         -2.72756        0.15157        1.27767
O         -2.58528        2.20879       -0.09103
O         -1.81402        0.03212       -0.99335
O         -4.18757        0.42283       -0.72402
H         -4.82621        1.03459       -0.33447
S          2.88412       -0.60538       -0.01454
O          3.36201        0.80668        0.03956
O          2.78000       -1.27917        1.27194
O          1.68144       -0.71904       -0.86482
O          4.07775       -1.40882       -0.77869
H          4.31965       -0.90511       -1.56689
N         -1.11766       -2.36186        0.04533
C         -0.45899       -2.20767        1.37013
H          0.55429       -1.82961        1.22740
H         -1.05639       -1.50964        1.95789
H         -0.41929       -3.18556        1.85587
C         -2.49214       -2.90433        0.18647
H         -3.05190       -2.24789        0.85298
H         -2.96748       -2.91543       -0.79471
H         -2.43370       -3.91657        0.59285
C         -0.29498       -3.16454       -0.89353
H         -0.81971       -3.22995       -1.84754
H          0.66044       -2.65612       -1.02664
H         -0.15383       -4.16282       -0.47290
H         -1.23838       -1.40072       -0.36803
N          1.18380        2.38094        0.07387
C          1.54184        3.77016        0.43481
H          2.09719        3.76117        1.37339
H          2.16497        4.19314       -0.35382
H          0.62709        4.35609        0.54452
C          0.47909        2.30612       -1.23553
H          1.11157        2.77611       -1.99000
H          0.31958        1.25516       -1.47285
H         -0.48508        2.81012       -1.15036
C          0.40929        1.71816        1.15737
H          0.20202        0.69668        0.84218
H          1.01852        1.70723        2.06197
H         -0.52941        2.25148        1.31140
H          2.07665        1.82636       -0.01292
