40
2sa2tma_29.log	Energy: -1097643.5590798
S          0.95050       -0.08196       -0.45484
O         -0.23652       -0.19056       -1.32605
O          1.67466        1.18495       -0.51865
O          0.42501       -0.14575        1.06334
O          1.85956       -1.25447       -0.62391
H         -0.29859       -0.80654        1.15033
H          3.28614       -0.81532       -0.19858
S         -2.87083       -1.73663        0.21273
O         -4.23143       -1.72476        0.67915
O         -1.75839       -1.78712        1.14452
O         -2.64908       -3.03392       -0.71463
O         -2.69731       -0.54433       -0.77885
H         -3.44561       -3.17716       -1.24605
H         -1.71743       -0.38125       -1.00300
N         -2.08016        3.40776        0.18082
C         -2.29428        2.36616        1.17176
H         -2.26188        2.80233        2.17542
H         -3.27900        1.91234        1.02722
H         -1.53172        1.56767        1.12146
C         -2.21936        2.88563       -1.16884
H         -3.20243        2.42012       -1.28536
H         -2.14152        3.70542       -1.89049
H         -1.44766        2.13459       -1.41705
C         -0.77824        4.02899        0.35888
H         -0.65429        4.83769       -0.36884
H         -0.70917        4.46231        1.36216
H          0.05391        3.31228        0.22682
N          4.24523       -0.48384        0.15167
C          4.00501        0.15158        1.47268
H          3.31747        0.98514        1.32885
H          3.54446       -0.58185        2.13510
H          4.95592        0.49480        1.88713
C          5.10778       -1.68129        0.25900
H          4.64748       -2.38657        0.95161
H          5.19429       -2.14529       -0.72384
H          6.09577       -1.39012        0.62353
C          4.75628        0.49520       -0.83949
H          4.88417       -0.00978       -1.79742
H          4.01182        1.28489       -0.94300
H          5.71269        0.89436       -0.49298
