40
2sa2tma_11.log	Energy: -1097670.8803652
S          0.70457        2.17186       -0.48020
O          1.99889        2.77397       -0.15555
O          0.12160        1.36047        0.60073
O         -0.37738        3.40140       -0.59849
O          0.67008        1.49901       -1.79606
H         -0.10645        3.96728       -1.33363
H          0.58377       -0.20923       -1.80219
S         -0.48773       -1.89755       -0.93397
O         -0.46007       -3.28109       -1.36588
O          0.73599       -1.18693       -1.71765
O         -1.70004       -1.11735       -1.28945
O         -0.17111       -1.70214        0.51554
H         -2.07628       -0.20148        0.08566
H          1.38041       -0.84999        0.61741
N          2.37549       -0.87308        0.94317
C          3.27622       -0.32060       -0.10416
H          3.07524       -0.84534       -1.03711
H          3.07870        0.74510       -0.22499
H          4.30928       -0.47596        0.21598
C          2.43633       -0.08011        2.19537
H          2.18798        0.95461        1.96104
H          1.70375       -0.48380        2.89511
H          3.44178       -0.15600        2.61555
C          2.64847       -2.31414        1.17746
H          1.91959       -2.69666        1.89029
H          2.52777       -2.84441        0.23298
H          3.66609       -2.42643        1.55794
N         -2.76008        0.16406        0.79698
C         -2.14319        0.11338        2.14500
H         -1.79201       -0.90356        2.31715
H         -1.29440        0.79442        2.15273
H         -2.89388        0.40393        2.88447
C         -3.11208        1.54748        0.39270
H         -2.21236        2.16061        0.42777
H         -3.49384        1.52108       -0.62833
H         -3.87522        1.93337        1.07296
C         -3.91949       -0.75514        0.69439
H         -4.28514       -0.74415       -0.33176
H         -3.58483       -1.76324        0.93839
H         -4.69829       -0.42995        1.38796
