38
2sa2eda_211.log	Energy: -1117808.4820032
S          0.77252       -1.82387        0.50898
O          1.97121       -2.62562        0.54447
O         -0.40367       -2.66422        1.09663
O          0.79614       -0.50520        1.14148
O          0.40462       -1.62497       -1.01488
H          1.96928        0.77675        0.33737
H         -0.43160       -1.05735       -1.11743
S         -2.90569       -0.46130       -0.42345
O         -4.09144       -0.77557       -1.19358
O         -1.67893       -0.14758       -1.21156
O         -3.18228        0.99233        0.27961
O         -2.60884       -1.38901        0.68946
H         -4.10494        1.00426        0.56758
H         -1.28330       -2.17096        0.99562
H          2.20754       -0.17909       -1.77209
H          2.93457        1.30325       -2.41200
H          4.61546       -0.51336       -1.90138
H          4.94348        1.01718       -1.08444
H          3.69170       -1.29892        0.23825
H          5.12470       -0.57849        0.59037
H          2.80986        2.12634       -0.02698
H          1.28963        1.87682       -0.72717
C          2.86887        0.65744       -1.53280
C          4.25343        0.16505       -1.11418
N          2.21523        1.40917       -0.43811
N          4.19777       -0.41526        0.21775
H         -0.79051        1.46468        1.29845
H         -1.21474        2.92811        2.17747
H         -1.88008        3.39475       -0.00709
H         -0.32105        4.22895        0.11826
H         -0.82740        1.64420       -1.17728
H         -0.35925        3.02983       -1.89746
H          1.06739        3.49677        2.25825
H          1.08385        1.88302        2.49542
C         -0.53503        2.52078        1.41583
C         -0.79941        3.24235        0.09850
N          0.87718        2.60505        1.81166
N         -0.25811        2.48548       -1.04548
