38
2sa2eda_192.log	Energy: -1117811.4972113
S          1.03991        0.29333        0.98465
O          2.31404        0.45884        1.74223
O         -0.15767        0.28237        1.83707
O          0.98710        1.25734       -0.13613
O          1.18409       -1.15809        0.33526
H          3.33590        1.12746       -0.95803
H          0.31282       -1.68359        0.33263
S         -2.21366       -1.80421       -0.07892
O         -3.40451       -2.60111       -0.27582
O         -0.99017       -2.52589        0.34384
O         -1.88438       -0.88803       -1.21937
O         -2.57411       -0.80298        1.14758
H         -2.55720        0.42951       -1.37257
H         -1.72561       -0.45620        1.50949
H         -4.09229        2.89089       -0.54741
H         -3.93794        1.34140        0.33674
H         -2.43335        3.28613        1.18869
H         -1.63094        1.75203        0.87546
H         -1.19781        4.19207       -0.52238
H         -0.32392        2.78147       -0.51488
H         -3.74723        1.30922       -2.22041
H         -2.24623        2.02496       -1.92122
C         -3.41809        2.06986       -0.28729
C         -2.14473        2.58765        0.39707
N         -2.99195        1.41058       -1.54807
N         -1.25550        3.18533       -0.59988
H          3.59667       -1.56500        0.06349
H          4.85752       -1.97306       -1.10688
H          5.51459       -0.12614        0.55191
H          5.65278        0.35248       -1.16293
H          3.37255        0.94762        0.70460
H          4.41955        2.06123       -0.07655
H          3.44317       -1.22840       -2.75021
H          2.26972       -1.03805       -1.59867
C          4.15586       -1.19150       -0.79892
C          4.96194        0.04353       -0.37414
N          3.22585       -0.80982       -1.85626
N          3.98909        1.14407       -0.15582
