40
2sa2tma_24.log	Energy: -1097651.0495286
S          0.29253       -0.37447       -0.57019
O          0.90298        0.97814       -0.54678
O          0.27724       -1.03534        0.73977
O         -1.04009       -0.36703       -1.22127
O          1.17295       -1.26182       -1.56986
H          2.12067       -1.16437       -1.32734
S          4.22102        0.31916        0.15829
O          5.57674        0.79943        0.11180
O          3.75186       -0.68931       -0.77415
O          3.96105       -0.34269        1.60438
O          3.27085        1.55451        0.14895
H          4.41805        0.18563        2.27426
H          2.30833        1.30083       -0.09845
N         -2.75785       -1.69861        0.32136
C         -2.15801       -3.05369        0.23479
H         -2.10216       -3.34381       -0.81489
H         -1.15175       -3.00352        0.65127
H         -2.78072       -3.75727        0.79204
C         -2.76718       -1.18675        1.71476
H         -1.73516       -1.14522        2.06380
H         -3.19821       -0.18578        1.68941
H         -3.36783       -1.85586        2.33590
C         -4.10144       -1.63535       -0.29786
H         -4.44315       -0.60199       -0.23166
H         -4.02084       -1.93728       -1.34276
H         -4.77753       -2.30625        0.23736
H         -2.12406       -1.06830       -0.24736
N         -3.55080        1.67119        0.09562
C         -4.78234        2.22301        0.63632
H         -5.64721        1.72834        0.18109
H         -4.82359        2.05848        1.71831
H         -4.87714        3.30925        0.45251
C         -2.38703        2.29004        0.72019
H         -2.40286        2.11170        1.80078
H         -1.47053        1.86213        0.30906
H         -2.36075        3.38252        0.55584
C         -3.49609        1.83193       -1.35291
H         -2.58017        1.37550       -1.73490
H         -4.35660        1.33449       -1.81434
H         -3.51918        2.89545       -1.65301
