38
2sa2eda_118.log	Energy: -1117820.0720780
S          2.43070        0.99112       -0.20724
O          3.29393       -0.02584       -0.80402
O          1.53717        1.67812       -1.16491
O          1.69702        0.55181        1.00277
O          3.41382        2.14372        0.39534
H          4.09663        2.32277       -0.26510
S         -2.94839       -1.16306       -0.03606
O         -4.04314       -1.86568        0.60874
O         -3.29068       -0.01720       -0.87845
O         -1.78994       -0.83955        0.86279
O         -2.21821       -2.27444       -1.02171
H         -2.91633       -2.72565       -1.51440
H         -1.70439        2.64934        1.68179
H          0.05698        2.39206        1.61698
H         -0.50190        4.79981        1.20552
H          0.26497        4.05023       -0.19949
H         -2.59233        4.65937        0.04759
H         -1.56213        5.03006       -1.17141
H         -1.23098        0.74130        0.34890
H         -1.77807        1.96166       -0.64543
C         -0.82081        2.68531        1.03845
C         -0.64666        4.06028        0.40628
N         -1.00527        1.68132       -0.03410
N         -1.78276        4.33476       -0.46981
H         -0.13121        1.61984       -0.59483
H          0.22226       -3.20893       -0.78123
H          0.97824       -1.66311       -1.20050
H          2.61116       -3.56756       -1.42056
H          3.11960       -2.35773       -0.24210
H          2.02928       -5.01049        0.37290
H          3.34479       -4.26713        0.99956
H         -0.35131       -1.74314        0.93527
H          0.93734       -2.71140        1.52849
C          0.99947       -2.49653       -0.49692
C          2.38017       -3.13929       -0.43753
N          0.66023       -1.98694        0.85674
N          2.40439       -4.11213        0.65782
H          1.18162       -1.10535        1.05030
