38
2sa2eda_174.log	Energy: -1117815.1638119
S          1.41087        1.85770        0.70354
O          2.65441        1.08246        0.91511
O          1.44371        2.73716       -0.46259
O          0.21440        0.99994        0.79129
O          1.24395        2.81621        2.01052
H          1.92880        3.49724        1.97017
S         -1.60349       -1.86400        0.65204
O         -2.88045       -2.54577        0.78735
O         -0.42654       -2.50315        1.26464
O         -1.32188       -1.39903       -0.74017
O         -1.86173       -0.47331        1.48654
H         -2.72573       -0.39878       -1.09447
H         -1.05453        0.09214        1.42314
H          1.43446       -2.31356       -1.45885
H          1.19688       -0.57826       -1.25417
H          3.18555       -1.03110       -2.72632
H          3.65020       -0.20513       -1.23248
H          4.07893       -3.04127       -1.82300
H          5.13459       -1.94086       -1.23018
H          1.11264       -1.91046        0.82041
H          2.77465       -2.21689        0.58342
C          1.88465       -1.40071       -1.06188
C          3.27061       -1.14772       -1.63858
N          2.00701       -1.56126        0.40898
N          4.16435       -2.23018       -1.21979
H          2.25585       -0.63873        0.82292
H         -1.85749        2.30943       -0.11933
H         -2.19558        3.24641       -1.57819
H         -4.25888        2.17178       -0.85015
H         -3.72108        1.46222       -2.40212
H         -3.26260        0.25893        0.28091
H         -4.37483       -0.26529       -0.83657
H         -0.27002        2.06912       -2.00622
H         -0.83545        0.66687       -1.45953
C         -2.10986        2.22763       -1.18899
C         -3.48115        1.58463       -1.34434
N         -1.11531        1.50491       -1.96736
N         -3.48846        0.22479       -0.72716
