22
2sa2a_29.log	Energy: -949699.8789481
S          2.42589       -0.23608        0.33014
O          3.49211       -0.95947        0.96968
O          1.14091       -0.12434        1.10755
O          2.77498        1.12732       -0.17032
O          2.03709       -1.10691       -0.97324
H          1.54992        2.00025       -0.23935
H          1.24320       -0.72761       -1.39482
S         -1.59975       -0.33952       -0.58771
O         -2.77799       -0.97772       -1.12044
O         -0.56108        0.14738       -1.50534
O         -2.01135        0.93901        0.24868
O         -0.96229       -1.29689        0.45976
H         -2.88129        0.71730        0.79081
H         -0.05406       -0.90763        0.78668
N         -4.18245        0.18998        1.46102
H         -4.91003        0.87765        1.62880
H         -4.00097       -0.29784        2.33342
H         -4.53727       -0.49147        0.79300
N          0.55621        2.44386       -0.29052
H          0.57391        3.43463       -0.51219
H          0.09311        2.27593        0.60291
H          0.02991        1.90464       -0.99252
