28
2sa2ma_13.log	Energy: -999032.1031284
S          2.50721       -0.00008       -0.17495
O          2.49394       -1.24271       -0.94829
O          2.49399        1.24218       -0.94890
O          1.47157        0.00017        0.90925
O          3.87851        0.00009        0.70185
H          4.62517       -0.00020        0.08738
S         -2.63205        0.00007       -0.01261
O         -2.67106       -1.23521        0.79581
O         -2.67112        1.23552        0.79553
O         -1.56192       -0.00003       -1.02491
O         -3.98782       -0.00006       -0.90421
H         -4.74596        0.00003       -0.30399
N         -0.12403       -2.14839        0.15114
H         -0.20770       -1.85312       -0.82466
H          0.45763       -1.40444        0.59159
C          0.50193       -3.47948        0.29197
H          0.58866       -3.71533        1.35213
H         -0.11831       -4.22620       -0.20330
H          1.49083       -3.43697       -0.16298
H         -1.08253       -2.07331        0.54236
N         -0.12392        2.14853        0.15080
H          0.45759        1.40425        0.59095
H         -0.20765        1.85371       -0.82513
C          0.50241        3.47939        0.29219
H         -0.11767        4.22653       -0.20265
H          0.58932        3.71470        1.35246
H          1.49125        3.43682       -0.16286
H         -1.08241        2.07356        0.54204
