28
2sa2ma_76.log	Energy: -999000.6320664
S         -2.84792       -0.35792        0.22872
O         -3.61226        0.78794        0.66539
O         -1.87638       -0.99498        1.09702
O         -3.90613       -1.52091       -0.11552
O         -2.23434       -0.08629       -1.18086
H         -4.74786       -1.10569       -0.35003
H         -1.22577       -0.17963       -1.18614
S          1.41838       -0.42740       -0.39216
O          2.01092        0.92391       -0.19424
O          0.30036       -0.44905       -1.34758
O          2.47905       -1.41599       -0.70000
O          0.85423       -0.89070        1.02528
H          3.99260       -0.70168       -0.56873
H         -0.12105       -0.75404        1.07749
N         -0.72386        1.92977        0.66340
H         -1.37504        2.21323        1.38759
C         -0.86084        2.77472       -0.52041
H         -0.68157        3.84529       -0.34054
H         -0.15187        2.43071       -1.27804
H         -1.86866        2.65875       -0.92771
H          0.21840        1.99650        1.03316
N          4.54387        0.13590       -0.23906
H          5.25276        0.40473       -0.91653
C          5.08510       -0.09245        1.11950
H          5.53371        0.82567        1.49767
H          4.25520       -0.38986        1.76039
H          5.82704       -0.88953        1.08738
H          3.75551        0.82579       -0.22179
