34
2sa2dma_14.log	Energy: -1048356.6183171
S          2.81529       -0.13480       -0.13500
O          2.60331       -1.52516       -0.59537
O          2.93645        0.84817       -1.21027
O          1.86047        0.25558        0.93017
O          4.23107       -0.14645        0.66584
H          4.93094       -0.35271        0.03142
S         -2.77194        0.04191       -0.01318
O         -2.99645       -1.27422        0.58676
O         -3.03547        1.19958        0.83839
O         -1.43937        0.12512       -0.69610
O         -3.77369        0.15624       -1.29508
H         -4.68153        0.15324       -0.96238
N          0.13408        2.22397        0.11880
C         -0.46235        2.97806        1.24269
C          0.61154        3.06160       -1.00318
H          0.91077        1.62162        0.46893
H         -1.31972        3.54415        0.87897
H         -0.80787        2.26949        1.99380
H          0.29140        3.64697        1.66108
H         -0.24038        3.57930       -1.44621
H          1.33769        3.78349       -0.62705
H          1.09840        2.41415       -1.73161
H         -0.55782        1.52882       -0.23800
N         -0.01125       -2.16228       -0.00193
C         -0.65103       -3.25665       -0.76203
C         -0.07208       -2.33153        1.46913
H          0.98476       -2.04013       -0.28532
H         -1.70835       -3.28848       -0.49604
H         -0.54281       -3.05165       -1.82712
H         -0.16171       -4.20016       -0.51571
H         -1.11972       -2.34477        1.77109
H          0.42530       -3.26503        1.73704
H          0.45206       -1.48958        1.92136
H         -0.49172       -1.27407       -0.25565
