28
2sa2ma_54.log	Energy: -999013.5395283
S          0.66201       -1.38900        0.23181
O          1.94060       -2.07973        0.25563
O         -0.53380       -2.24162        0.02367
O          0.44034       -0.43428        1.34775
O          0.77066       -0.45340       -1.10040
H          1.23353        0.97917        1.15257
H         -0.12311       -0.09075       -1.28410
S         -2.81767        0.34505       -0.25335
O         -4.17269        0.70950       -0.56916
O         -1.74012        0.63881       -1.18680
O         -2.36706        1.13424        1.08220
O         -2.79884       -1.14625        0.17305
H         -3.04570        1.01609        1.76230
H         -1.85706       -1.58445        0.14660
N          3.67985        0.32042       -0.56098
H          3.35033       -0.60329       -0.26816
C          5.12758        0.44153       -0.35833
H          5.70593       -0.31059       -0.90688
H          5.46432        1.43303       -0.67304
H          5.35037        0.33024        0.70574
H          3.44868        0.37609       -1.54920
N          1.81987        1.79882        0.83790
H          2.19279        2.26852        1.65942
C          1.01848        2.71272       -0.00547
H          1.62508        3.56791       -0.30550
H          0.69378        2.16146       -0.88623
H          0.13823        3.04581        0.54378
H          2.62623        1.33564        0.28439
