40
2sa2tma_08.log	Energy: -1097673.9996269
S          0.34649        1.95640       -0.66431
O          0.51146        1.35659        0.69539
O          1.20713        3.09823       -0.92541
O          0.88506        0.81094       -1.67306
O         -1.09124        2.13483       -0.97544
H         -2.02494        0.98054       -0.08712
S         -0.49195       -2.23983       -0.26503
O         -1.66824       -2.78815        0.41584
O          0.66376       -1.94374        0.58182
O          0.08856       -3.42223       -1.23576
O         -0.86216       -1.12709       -1.18157
H         -0.63469       -3.73025       -1.79785
H          0.26524        0.03628       -1.59801
N          2.87696       -0.02017        0.67817
C          3.56413        1.29738        0.65503
H          3.35181        1.79069       -0.29365
H          3.16348        1.91298        1.45943
H          4.63700        1.13790        0.78324
C          3.04631       -0.70716        1.98180
H          2.65930       -0.05578        2.76597
H          2.47519       -1.63403        1.95688
H          4.10869       -0.90201        2.14532
C          3.30289       -0.87423       -0.46051
H          2.73683       -1.80335       -0.42023
H          3.07369       -0.34431       -1.38441
H          4.37608       -1.05954       -0.37218
H          1.85676        0.19634        0.58488
N         -2.81210        0.77962        0.57692
C         -3.43335        2.10781        0.80420
H         -2.68220        2.77335        1.22786
H         -3.76058        2.51182       -0.15331
H         -4.27963        1.99379        1.48525
C         -3.75318       -0.16742       -0.07216
H         -4.06234        0.25470       -1.02873
H         -3.24096       -1.11635       -0.22781
H         -4.61920       -0.30282        0.58013
C         -2.24066        0.23068        1.83574
H         -1.90040       -0.78807        1.65585
H         -1.39630        0.85703        2.12295
H         -3.02115        0.23234        2.60040
