28
2sa2ma_11.log	Energy: -999033.7909531
S          2.13250        0.29192       -0.45459
O          1.45723        0.25086        0.91373
O          1.91014        1.61071       -1.05705
O          3.47334       -0.24989       -0.43043
O          1.27989       -0.78294       -1.31514
H          0.34916       -0.46408       -1.40211
S         -2.24262       -0.31232       -0.19876
O         -2.58153        0.77795        0.73859
O         -1.26463        0.14124       -1.21412
O         -1.90912       -1.59480        0.43338
O         -3.60161       -0.67313       -0.99733
H         -3.91889        0.12516       -1.44114
N          0.57091       -2.21594        1.41710
H          1.01561       -1.25867        1.31246
H          0.46427       -2.42261        2.40774
C          1.36810       -3.25268        0.71639
H          0.86430       -4.21573        0.79644
H          1.45936       -2.95117       -0.32602
H          2.36011       -3.30276        1.16424
H         -0.38181       -2.10241        1.00795
N         -0.27214        2.34104        0.55372
H          0.36169        1.59386        0.92081
H         -0.03558        2.34328       -0.44396
C         -0.01537        3.64977        1.18481
H         -0.67484        4.40171        0.75200
H         -0.20245        3.57061        2.25532
H          1.02541        3.92052        1.00942
H         -1.24182        1.99033        0.66447
