22
2sa2a_27.log	Energy: -949698.8801915
S          2.21288       -0.42420       -0.02577
O          0.91884       -1.16770        0.10548
O          2.33612        0.23729       -1.32602
O          2.49395        0.40934        1.14898
O          3.35438       -1.55981        0.05694
H          3.30881       -2.09861       -0.74493
S         -2.38878       -0.27931        0.01226
O         -3.46879        0.33709       -0.71780
O         -1.97891        0.24578        1.30353
O         -2.76686       -1.80896        0.32153
O         -1.17115       -0.38013       -0.94904
H         -3.25151       -2.17061       -0.43481
H         -0.28031       -0.72608       -0.50099
N          0.25534        1.97736        1.47287
H          0.21095        2.30048        0.44856
H         -0.55059        1.35411        1.63241
H          1.13626        1.42845        1.56893
H          0.23681        2.75977        2.11995
N          0.23942        2.41800       -1.26229
H         -0.57901        1.96364       -1.66072
H          1.04447        1.84674       -1.53282
H          0.33464        3.32754       -1.70227
