22
2sa2a_03.log	Energy: -949708.0335654
S         -2.44249        0.00504        0.09196
O         -2.21501       -1.28631        0.78374
O         -2.23959        1.17607        0.96880
O         -1.73860        0.09507       -1.19304
O         -4.00869        0.01738       -0.32234
H         -4.53968       -0.00018        0.48578
S          2.60612        0.09813       -0.02346
O          1.56854       -0.18172       -1.04691
O          3.97946       -0.17652       -0.39192
O          2.37247        1.40321        0.63385
O          2.19158       -1.04202        1.10955
H          2.84997       -1.02106        1.81663
N         -0.03387        2.23872       -0.31756
H         -0.82224        2.08953        0.34415
H          0.89219        2.03852        0.13690
H         -0.17348        1.53311       -1.05273
H         -0.05691        3.17451       -0.71166
N          0.01501       -2.29601       -0.38594
H          0.52672       -1.45511       -0.75579
H         -0.86026       -1.97630        0.10628
H         -0.22733       -2.92267       -1.14828
H          0.64387       -2.75118        0.27332
