34
2sa2dma_48.log	Energy: -1048348.9415357
S         -0.07608       -1.91469       -0.24226
O         -0.12149       -1.01644        0.92623
O          0.26324       -0.98415       -1.51027
O          1.05085       -2.85838       -0.22623
O         -1.40353       -2.53359       -0.50619
H         -2.50832       -1.54068        0.06030
S          0.13658        2.31421       -0.24887
O          1.48507        1.75552       -0.02322
O          0.10935        3.72415       -0.60433
O         -0.70187        1.42337       -1.08615
O         -0.62474        2.23226        1.21388
H         -0.13256       -0.07551       -1.38829
H         -0.54112        3.10917        1.61001
N          2.75567       -0.60976        0.26273
C          3.86930       -0.37198       -0.67698
C          3.11988       -0.58091        1.69443
H          2.04365        0.14105        0.11089
H          4.63738       -1.13379       -0.53377
H          3.47321       -0.42539       -1.69077
H          4.27986        0.62184       -0.49563
H          3.85830       -1.35772        1.89915
H          3.52557        0.40270        1.93386
H          2.20911       -0.76004        2.26556
H          2.29988       -1.51786        0.04927
N         -3.29970       -0.88268        0.34911
C         -3.56356        0.05070       -0.77686
C         -2.95672       -0.19353        1.62064
H         -4.11088       -1.48301        0.49256
H         -2.68076        0.67996       -0.91070
H         -3.74449       -0.53326       -1.67949
H         -4.43322        0.66584       -0.53919
H         -2.07143        0.41924        1.45066
H         -3.80398        0.42182        1.93014
H         -2.72864       -0.94722        2.37346
