28
2sa2ma_64.log	Energy: -999012.8137634
S         -3.25579        0.41723       -0.18316
O         -4.32947        1.02036       -0.92648
O         -2.09871        1.20145        0.21513
O         -3.83129       -0.14061        1.21477
O         -2.81289       -0.87259       -0.93493
H         -4.68128       -0.57569        1.05537
H         -1.94293       -1.25683       -0.54531
S          0.57273       -1.02743        0.16364
O          0.98547       -0.47828       -1.13645
O         -0.69991       -1.78283        0.12453
O          1.66020       -1.74056        0.85811
O          0.30018        0.24341        1.13537
H          3.10593       -1.19621        0.10981
H         -0.56269        0.64643        0.88773
N          3.74542       -0.63517       -0.50193
H          3.46503       -0.86500       -1.45497
C          5.17427       -0.87707       -0.23602
H          5.78374       -0.24706       -0.88470
H          5.38099       -0.63108        0.80555
H          5.41405       -1.92615       -0.41083
H          3.44075        0.38838       -0.33728
N          2.64009        1.85026       -0.07112
H          2.07019        1.92866       -0.91073
C          3.30851        3.11888        0.23536
H          2.61248        3.95830        0.34636
H          3.86952        3.01448        1.16723
H          4.01804        3.36276       -0.55953
H          1.97114        1.60286        0.65859
