22
2sa2a_01.log	Energy: -949710.9474056
S          2.17122       -0.00727       -0.12095
O          2.09475       -1.21698        0.71228
O          1.16052        0.05568       -1.19390
O          2.24687        1.25782        0.64161
O          3.60498       -0.17903       -0.84324
H          3.76070        0.59121       -1.40714
S         -2.25366        0.07425       -0.22566
O         -2.08097        1.45478       -0.71975
O         -3.58148       -0.49204       -0.26226
O         -1.37312       -0.88100       -1.19849
O         -1.56225       -0.06804        1.11592
H         -0.47445       -0.48717       -1.31131
H         -0.89322       -1.54624        1.23614
N         -0.22393        2.35551        1.02138
H         -0.65263        1.64701        1.63170
H         -0.26759        3.28481        1.42777
H          0.76280        2.05515        0.83498
H         -0.80765        2.27772        0.15711
N         -0.31836       -2.41073        1.01060
H         -0.66866       -2.75370        0.11553
H         -0.38850       -3.12545        1.72865
H          0.66971       -2.07781        0.89117
