22
2sa2a_14.log	Energy: -949706.5541805
S         -2.18569        0.14489        0.22065
O         -3.55500        0.57901        0.39614
O         -1.18417        0.78944        1.09376
O         -2.14202       -1.45982        0.61039
O         -1.68783        0.08478       -1.18579
H         -2.69799       -1.59745        1.38929
H         -0.45191        1.42503       -1.27400
S          2.25461       -0.01105        0.24641
O          3.51021       -0.60535        0.63129
O          2.10401        1.45202        0.46501
O          1.80191       -0.33534       -1.15146
O          1.13153       -0.70844        1.18742
H          0.82766       -1.50656       -1.27268
H          0.35179       -0.10987        1.27271
N          0.16514        2.24959       -1.13141
H         -0.38482        2.99745       -0.71466
H          0.55955        2.54989       -2.01890
H          0.95942        1.97246       -0.46128
N         -0.03893       -2.14980       -1.29118
H         -0.83376       -1.52979       -1.52268
H         -0.20086       -2.49003       -0.34251
H          0.05554       -2.92140       -1.94413
