22
2sa2a_08.log	Energy: -949706.9234886
S         -2.75184       -0.09969       -0.06167
O         -4.02650        0.32411       -0.60323
O         -2.69777       -1.40978        0.59072
O         -1.57130        0.09597       -0.97235
O         -2.35424        1.01515        1.10188
H         -3.11876        1.12719        1.68236
S          2.59219       -0.02559       -0.02950
O          2.57437        1.22286       -0.82242
O          1.54274       -0.03292        1.01872
O          2.62131       -1.25095       -0.83454
O          3.95997        0.00642        0.83759
H          4.70890       -0.04993        0.22807
N         -0.01801       -2.00974       -0.09453
H         -0.53691       -1.31228       -0.67000
H          0.71994       -2.46153       -0.63599
H          0.45543       -1.45180        0.64157
H         -0.70929       -2.64708        0.29748
N          0.06970        2.11144       -0.18216
H          0.12533        1.84732        0.80343
H         -0.27070        3.06310       -0.28227
H          1.02812        1.97939       -0.57866
H         -0.59808        1.43120       -0.62145
