22
2sa2a_41.log	Energy: -949694.4742216
S          2.73394        0.15762        0.05220
O          4.11036        0.32388       -0.33267
O          2.15571       -1.16142        0.23056
O          2.51594        0.87621        1.47857
O          1.85465        1.00337       -0.91867
H          3.11766        1.63219        1.53480
H          0.86108        0.75924       -0.85159
S         -1.28700       -0.75233       -0.21100
O         -2.56054       -1.05142       -0.86580
O         -0.61282        0.44627       -0.80918
O         -1.40726       -0.60629        1.25907
O         -0.34945       -2.00030       -0.50928
H         -3.03683       -0.04424        1.50938
H          0.56185       -1.81335       -0.18826
N         -3.95760        0.28241        1.12891
H         -4.24310       -0.45620        0.48197
H         -3.73595        1.15183        0.53236
H         -4.65158        0.45080        1.85021
N         -3.05438        2.26439       -0.57019
H         -3.53937        2.26838       -1.46308
H         -2.12716        1.86482       -0.74723
H         -2.92658        3.23176       -0.28958
