34
2sa2dma_42.log	Energy: -1048350.3552518
S         -0.09032       -1.89478       -0.36497
O         -0.41326       -0.95078       -1.62635
O          0.04246       -0.99373        0.79832
O         -1.27464       -2.76330       -0.30646
O          1.19275       -2.58881       -0.64818
H          2.31328       -1.68625        0.12712
S          0.14334        2.16643       -0.11084
O          1.01276        2.23222        1.06497
O         -1.26963        1.83192        0.12494
O          0.03584        3.69656       -0.66612
O          0.74153        1.38496       -1.22710
H          0.89539        4.11423       -0.52608
H          0.06345       -0.07863       -1.53749
N         -2.77657       -0.40639        0.35434
C         -3.04510       -0.41525        1.80781
C         -3.92089       -0.01858       -0.49386
H         -2.00502        0.27941        0.19274
H         -3.83136       -1.13857        2.02929
H         -2.11771       -0.69295        2.30806
H         -3.34820        0.58626        2.11517
H         -4.75167       -0.70483       -0.32208
H         -4.21236        1.00279       -0.24681
H         -3.60474       -0.06721       -1.53569
H         -2.42041       -1.33962        0.07215
N          3.13723       -1.11401        0.47439
C          2.81910       -0.44327        1.76362
C          3.51458       -0.16960       -0.60875
H          3.88836       -1.78834        0.61644
H          2.05459        0.31381        1.58223
H          2.43624       -1.19040        2.45767
H          3.72969        0.01729        2.15223
H          2.66879        0.49874       -0.78674
H          4.39209        0.40099       -0.29989
H          3.72807       -0.74251       -1.51145
