38
2sa2eda_104.log	Energy: -1117820.9028755
S          2.85244       -1.35505       -0.15689
O          3.75144       -0.23240       -0.43438
O          3.33470       -2.36581        0.77103
O          1.45979       -0.88161        0.12811
O          2.59861       -2.11602       -1.58997
H          3.40475       -2.60163       -1.81059
S         -2.52004        1.36650       -0.30299
O         -1.71077        2.07641       -1.31388
O         -3.48536        0.41573       -0.85745
O         -1.68861        0.81239        0.79206
O         -3.37558        2.50891        0.47670
H         -3.97763        2.91860       -0.15946
H          0.86131        3.55208        0.56054
H          0.42702        2.08715        1.47346
H          2.75892        3.05610        2.03321
H          2.77407        1.36404        1.53182
H          4.06141        3.49057        0.22279
H          4.02517        1.88945       -0.19426
H          0.02791        1.93131       -0.94216
H          1.72043        2.09566       -1.14602
C          1.12763        2.50975        0.75211
C          2.58962        2.38549        1.18504
N          0.96645        1.77373       -0.52676
N          3.46003        2.69660        0.05155
H          1.10617        0.75308       -0.36415
H         -1.46276       -3.73489        0.98045
H         -1.58057       -2.46363        2.22309
H         -3.85756       -3.30497        1.36091
H         -3.61476       -1.56202        1.21454
H         -4.05012       -3.35868       -0.90691
H         -3.79833       -1.72209       -0.97943
H         -0.00124       -1.84508        0.34829
H         -1.35433       -1.99332       -0.65632
C         -1.79680       -2.71472        1.18311
C         -3.28065       -2.53535        0.83924
N         -1.03624       -1.80249        0.30243
N         -3.45016       -2.60196       -0.61009
H         -1.28136       -0.80769        0.51376
