28
2sa2ma_68.log	Energy: -999010.9637149
S          0.81736       -1.62315        0.08408
O          1.98105       -2.48217       -0.02336
O         -0.48869       -2.31232        0.22304
O          0.95634       -0.53738        1.09750
O          0.76203       -0.85401       -1.34478
H          2.39704        0.15920        0.94393
H         -0.08393       -0.35890       -1.38991
S         -2.66332        0.33721       -0.11215
O         -4.01920        0.74614       -0.36591
O         -1.63572        0.51524       -1.12579
O         -2.09677        1.19015        1.13950
O         -2.67851       -1.11921        0.41747
H         -2.76022        1.18819        1.84423
H         -1.74980       -1.58864        0.36642
N          2.03039        3.14109        0.15306
H          1.83062        3.68688        0.98658
C          0.77767        2.56697       -0.38118
H          0.01441        3.31894       -0.60335
H          1.00015        2.01684       -1.29803
H          0.37035        1.85331        0.33731
H          2.43641        3.78771       -0.51680
N          3.28020        0.69285        0.68601
H          2.96871        1.69708        0.54209
C          3.85855        0.13178       -0.56091
H          4.75910        0.68469       -0.82980
H          4.07444       -0.92545       -0.41211
H          3.10751        0.21656       -1.34617
H          3.93498        0.63708        1.46237
