22
2sa2a_45.log	Energy: -949682.5465028
S         -2.59000       -0.15034        0.10837
O         -3.39352        1.04488        0.19451
O         -1.64319       -0.50470        1.14965
O         -3.59669       -1.39833        0.03584
O         -1.90562       -0.23295       -1.29829
H         -4.44605       -1.08836       -0.30925
H         -0.90974       -0.30438       -1.21711
S          1.67884       -0.15421       -0.15006
O          0.68145       -0.60980       -1.11437
O          2.32932        1.12610       -0.37409
O          1.03324       -0.17152        1.29051
O          2.76174       -1.25679       -0.02112
H          0.04465       -0.15776        1.23134
H          3.72015       -0.83025        0.08511
N          5.05311       -0.09187        0.19390
H          5.75139       -0.38919       -0.48022
H          5.47093       -0.11728        1.11874
H          4.79227        0.86963       -0.01483
N         -0.54051        2.24681        0.00270
H         -0.88166        2.65840        0.86502
H         -1.10454        2.62430       -0.75157
H          0.41929        2.54808       -0.13735
