22
2sa2a_33.log	Energy: -949698.3343021
S         -1.26235       -1.56349        0.00986
O         -1.68890       -0.90908        1.24600
O         -1.72474       -0.91314       -1.22696
O          0.20788       -1.83754       -0.03923
O         -1.95642       -3.01900        0.08500
H         -1.65977       -3.54431       -0.67118
S          2.25192        0.55343        0.00383
O          3.57504        1.09949       -0.01436
O          1.11539        1.46981        0.07172
O          2.07439       -0.37497       -1.26924
O          2.14975       -0.46919        1.21090
H          1.28867       -0.96211       -1.12694
H          1.35627       -1.04620        1.07968
N         -1.65863        1.61801        0.01564
H         -2.10700        2.56310        0.00283
H         -1.91293        1.03455       -0.79247
H         -0.62531        1.67921        0.02440
H         -1.92402        1.05169        0.83112
N         -2.82499        4.26333       -0.01740
H         -3.26067        4.48865       -0.90703
H         -2.09472        4.95222        0.13952
H         -3.52757        4.40376        0.70268
