22
2sa2a_11.log	Energy: -949705.3339444
S          1.49143        0.41483        0.13870
O          1.10547       -0.84657       -0.54602
O          1.70402        1.53935       -0.80509
O          0.51329        0.80849        1.18986
O          2.84298        0.13182        0.87449
H          3.34995       -0.64474        0.41099
S         -2.33166       -0.58559       -0.03936
O         -3.64242       -1.15730        0.03552
O         -2.17198        0.73468       -0.66455
O         -1.73594       -0.50985        1.41849
O         -1.39705       -1.60295       -0.79048
H         -0.84800       -0.03967        1.41528
H         -0.43932       -1.30338       -0.76996
N         -0.55443        2.89825       -0.38715
H         -0.83266        3.69409       -0.95411
H          0.38714        2.50346       -0.67478
H         -0.48768        3.15430        0.59615
H         -1.24071        2.11334       -0.47440
N          3.94553       -1.89453       -0.35493
H          4.30216       -2.63201        0.24399
H          4.65116       -1.67965       -1.05187
H          3.11705       -2.24096       -0.83407
