28
2sa2ma_29.log	Energy: -999023.8429828
S         -1.37455       -0.03239       -0.74647
O         -2.50186       -0.62124       -1.49080
O         -0.18900        0.31529       -1.56342
O         -1.81477        1.13477        0.07899
O         -0.94032       -1.17094        0.26562
H         -3.46606        0.74904        0.53537
H         -0.01506       -0.96294        0.64808
S          2.60850       -0.71249        0.28880
O          3.51239       -1.68335        0.85432
O          1.35464       -0.44680        1.07259
O          3.22541        0.59571       -0.07833
O          2.09021       -1.36796       -1.09562
H          2.16650        1.72453       -0.24440
H          1.34609       -0.83917       -1.44722
N         -4.24184        0.04796        0.43740
H         -5.15067        0.50270        0.39831
C         -4.14625       -0.98364        1.50296
H         -4.90132       -1.75023        1.33298
H         -3.14886       -1.42148        1.44671
H         -4.29450       -0.51274        2.47393
H         -3.98369       -0.36185       -0.48657
N          1.30038        2.35437       -0.32315
H          1.50929        3.15973       -0.90780
C          0.83186        2.74191        1.02858
H         -0.12768        3.25130        0.95276
H          0.72363        1.82271        1.60284
H          1.58092        3.38425        1.49178
H          0.60113        1.76249       -0.80990
