34
2sa2dma_100.log	Energy: -1048321.9180601
S         -3.18563        0.32041       -0.04051
O         -4.12968        1.29967       -0.50456
O         -2.01892        0.71651        0.73010
O         -3.93796       -0.72221        0.93115
O         -2.76792       -0.55922       -1.25915
H         -4.80074       -0.94222        0.55075
H         -1.97941       -1.16688       -1.03538
S          0.45498       -1.46606       -0.13184
O         -0.80746       -2.06918       -0.60291
O          0.95196       -0.37050       -0.97620
O          0.15619       -0.83689        1.32203
O          1.50832       -2.46477        0.16996
H         -0.62826       -0.24777        1.24903
H          2.88447       -1.69457        0.24089
N          3.73075       -1.04477        0.33710
C          3.35922        0.02239        1.30360
C          4.09851       -0.52794       -1.00624
H          4.49359       -1.60313        0.71795
H          2.52249        0.57665        0.87899
H          3.04217       -0.44377        2.23587
H          4.21242        0.68232        1.46611
H          3.21445       -0.04301       -1.42008
H          4.92370        0.17961       -0.91115
H          4.38503       -1.36774       -1.63929
N          1.12061        2.66012       -0.44892
C          0.79441        2.97618        0.92486
C          2.46784        3.00853       -0.83188
H          0.90401        1.69358       -0.66981
H          0.80940        4.06279        1.07049
H         -0.21262        2.61899        1.15166
H          1.49445        2.54011        1.66676
H          2.59638        4.09701       -0.80036
H          3.25590        2.57671       -0.17874
H          2.65734        2.68211       -1.85878
