38
2sa2eda_131.log	Energy: -1117820.9673897
S          1.21923        1.74398       -0.85185
O          1.59643        3.12765       -1.03221
O          1.02858        1.33750        0.58630
O         -0.25653        1.61626       -1.49069
O          2.05740        0.72706       -1.53305
H          1.89569       -0.74988       -0.76000
S         -1.40357       -1.77929       -0.36695
O         -2.81730       -2.14034       -0.37360
O         -0.86206       -1.28642        0.90692
O         -0.55929       -3.19569       -0.54880
O         -0.97655       -0.97140       -1.53015
H         -0.95682       -3.68768       -1.28008
H         -0.49275        0.65842       -1.57184
H         -2.90936        2.88781        1.64416
H         -1.75531        2.94934        0.28240
H         -4.01139        2.00566       -0.37858
H         -2.69238        0.87876       -0.65326
H         -4.75083        0.64013        1.37368
H         -3.89343       -0.53864        0.58748
H         -1.16497        1.82462        2.60775
H         -1.84419        0.51085        1.83895
C         -2.33640        2.29124        0.93008
C         -3.26845        1.37939        0.12894
N         -1.39136        1.42987        1.69844
N         -3.83897        0.37856        1.02152
H         -0.47260        1.29453        1.18948
H          3.17378       -2.71831        1.07982
H          3.80097       -2.24098       -0.52432
H          4.89332       -1.00391        1.36417
H          4.08267        0.07604        0.22277
H          3.66195        0.13753        2.86661
H          2.49108        0.56109        1.78803
H          1.36028       -2.33757       -0.47460
H          1.31067       -1.21985        0.72206
C          3.25107       -1.90309        0.35722
C          3.91393       -0.68542        0.99551
N          1.87577       -1.54917       -0.07313
N          3.09411       -0.19822        2.10002
