40
2sa2tma_19.log	Energy: -1097667.9825704
S          1.01542       -0.66509        1.20579
O          2.26504       -0.85201        1.94016
O         -0.22815       -0.65732        1.99124
O          1.09784        0.57112        0.33371
O          0.95996       -1.89495        0.19869
H          2.45804        0.44095       -0.37622
H          0.02244       -2.08218       -0.13552
S         -2.36298       -1.26817       -0.73182
O         -3.65398       -1.52601       -1.33234
O         -1.44283       -2.42301       -0.61308
O         -1.64251       -0.08024       -1.28599
O         -2.69717       -0.82523        0.80657
H         -1.58342        1.12326       -0.23736
H         -1.86441       -0.90029        1.32755
N          3.44191        0.35194       -0.81350
C          4.38750        0.88770        0.19565
H          4.16561        1.94256        0.36171
H          4.23158        0.33569        1.12353
H          5.41152        0.77185       -0.16806
C          3.69055       -1.09018       -1.07521
H          3.64622       -1.62345       -0.12615
H          2.90373       -1.46976       -1.72606
H          4.67148       -1.20207       -1.54418
C          3.43469        1.14246       -2.06253
H          2.67059        0.74055       -2.72894
H          3.20049        2.18121       -1.82583
H          4.41553        1.08415       -2.54062
N         -1.78147        2.10044        0.13287
C         -0.89829        2.98974       -0.65271
H          0.13267        2.72149       -0.42158
H         -1.09302        2.81944       -1.71213
H         -1.10000        4.03161       -0.39138
C         -3.21689        2.32472       -0.16809
H         -3.37681        2.16488       -1.23420
H         -3.79953        1.59122        0.38948
H         -3.49280        3.34230        0.11903
C         -1.50304        2.18738        1.58526
H         -2.12925        1.46273        2.10327
H         -0.45709        1.93803        1.75283
H         -1.72838        3.20162        1.92575
