34
2sa2dma_74.log	Energy: -1048334.6404945
S         -2.45637        0.58727       -0.23723
O         -2.58020       -0.88544       -0.44408
O         -2.39869        0.96869        1.17292
O         -1.42454        1.21896       -1.07351
O         -3.83221        1.17156       -0.86496
H         -4.57085        0.69004       -0.46815
S          0.46008       -2.35872        0.21773
O          0.82464       -0.95753        0.31949
O          1.21472       -3.36069        0.92927
O         -1.04029       -2.57350        0.52446
O          0.57833       -2.65289       -1.36794
H         -1.66143       -1.82632        0.13084
H          0.45919       -3.60176       -1.51820
N          0.65132        2.07124        0.52222
C          0.56303        1.74244        1.96120
C          0.57454        3.51464        0.23006
H          1.54990        1.66599        0.11684
H         -0.40127        2.07370        2.34642
H          0.63768        0.66114        2.06588
H          1.38410        2.23458        2.48746
H         -0.37174        3.90839        0.60404
H          1.40890        4.02904        0.71126
H          0.62161        3.65773       -0.84973
H         -0.12350        1.60886        0.00060
N          2.91770        0.86261       -0.56739
C          3.83239        0.42595        0.48600
C          3.59482        1.51338       -1.68487
H          2.39798        0.05113       -0.89501
H          4.29142        1.30113        0.95784
H          3.26881       -0.12849        1.23962
H          4.63731       -0.22028        0.10701
H          4.06489        2.43890       -1.33679
H          4.37654        0.88306       -2.13361
H          2.86525        1.76760       -2.45773
