38
2sa2eda_138.log	Energy: -1117820.3544008
S         -0.79900        1.63051       -0.90192
O         -1.46084        2.84554       -1.31211
O          0.64336        1.51358       -1.25902
O         -0.98006        1.29183        0.55062
O         -1.53532        0.43808       -1.70936
H         -1.53589       -0.24174        0.88338
H         -0.97574       -0.37506       -1.68733
S          1.16687       -1.86656       -0.48269
O         -0.18621       -1.86751       -1.13026
O          1.91214       -3.09768       -0.58363
O          2.02306       -0.77245       -1.29456
O          1.02404       -1.32928        0.90745
H          1.49644        0.06546       -1.39321
H          1.36446        0.26502        1.19720
H          3.30401        2.24019        2.30599
H          2.81137        0.70556        3.07135
H          4.98485        0.47172        1.80043
H          3.71370       -0.57808        1.17407
H          4.95462        1.59988       -0.20386
H          3.96757        0.41023       -0.79199
H          0.96721        1.78335        1.75559
H          1.90219        1.61699        0.40319
C          2.99236        1.20962        2.11942
C          4.02686        0.46636        1.26940
N          1.72899        1.24048        1.34959
N          4.09892        1.08513       -0.04801
H         -3.62222        0.78344        1.37458
H         -4.16224       -0.56020        2.39859
H         -3.80573       -2.15920        0.53845
H         -3.39235       -0.81938       -0.55413
H         -1.79620       -1.63985        1.79049
H         -1.36299       -1.71970        0.17965
H         -6.12631        0.32627        1.57248
H         -5.58036        0.42774        0.03562
C         -4.14809       -0.18328        1.36879
C         -3.37720       -1.15705        0.48442
N         -5.52162       -0.11571        0.89074
N         -1.94591       -1.21229        0.87884
