34
2sa2dma_21.log	Energy: -1048357.5581444
S          2.25208       -0.15437       -0.65402
O          1.45114       -0.15264        0.64828
O          2.23805        1.19833       -1.21347
O          3.51685       -0.84595       -0.53350
O          1.36496       -1.10058       -1.61936
H          0.45904       -0.73033       -1.70947
S         -2.15311        0.22145       -0.60652
O         -1.88149        1.66350       -0.73951
O         -1.32625       -0.61963       -1.49149
O         -2.18081       -0.25662        0.78985
O         -3.68607        0.00573       -1.08423
H         -3.76497        0.31596       -1.99713
N         -0.21930       -2.19185        1.09054
C         -0.01314       -2.58608        2.49767
C         -0.19285       -3.31483        0.12790
H         -1.10444       -1.65640        0.99841
H          0.96359       -3.06173        2.59572
H         -0.04473       -1.69098        3.11918
H         -0.79827       -3.27869        2.80506
H          0.80455       -3.75546        0.12240
H         -0.93579       -4.05763        0.42387
H         -0.42357       -2.92010       -0.85972
H          0.51414       -1.47245        0.84287
N          0.28910        2.31665        0.84544
C          1.20018        3.45878        0.61969
C         -0.42442        2.33637        2.14041
H         -0.42359        2.25291        0.09381
H          1.94594        3.47787        1.41574
H          1.69608        3.30793       -0.33788
H          0.62396        4.38561        0.62585
H          0.30518        2.26264        2.94843
H         -0.98612        3.26745        2.22923
H         -1.11282        1.49018        2.16261
H          0.82020        1.41379        0.77121
