40
2sa2tma_06.log	Energy: -1097674.9987977
S         -0.28937       -1.49285        0.12651
O          0.51439       -2.58192        0.69165
O         -0.73927       -0.50469        1.17778
O          0.58367       -0.71842       -0.88117
O         -1.51380       -1.97305       -0.59788
H         -2.65584       -1.02654       -0.32817
S          0.63217        2.47473        0.03762
O          1.97928        1.96700        0.27614
O          0.42060        3.88741       -0.13106
O          0.04043        1.73791       -1.22964
O         -0.30623        1.98952        1.21076
H          0.24351        0.73581       -1.16370
H         -0.36651        0.96888        1.23981
N          3.12602       -1.05713       -0.17346
C          3.40545       -2.47623       -0.50143
H          2.69104       -3.09524        0.04092
H          3.26594       -2.62044       -1.57340
H          4.43505       -2.71226       -0.22118
C          3.98087       -0.12666       -0.94823
H          3.82916       -0.31899       -2.01127
H          3.68148        0.89443       -0.71295
H          5.02768       -0.29762       -0.68542
C          3.20592       -0.80633        1.28937
H          2.93203        0.23306        1.46965
H          2.49470       -1.47130        1.78082
H          4.22571       -1.00528        1.62845
H          2.11697       -0.87563       -0.45715
N         -3.54160       -0.42426       -0.16087
C         -3.20213        0.98884       -0.45658
H         -2.45711        1.33278        0.25919
H         -2.77921        1.05069       -1.45965
H         -4.10662        1.59898       -0.38824
C         -4.56585       -0.95059       -1.08811
H         -4.21530       -0.81385       -2.11156
H         -4.70260       -2.01516       -0.89532
H         -5.50833       -0.41720       -0.94072
C         -3.91814       -0.61441        1.25912
H         -4.12761       -1.67168        1.42541
H         -3.06766       -0.31917        1.87346
H         -4.80139       -0.01229        1.48777
