38
2sa2eda_71.log	Energy: -1117820.8671514
S          2.54306        0.40329       -0.23322
O          2.64170        1.83115        0.08311
O          2.89960       -0.51496        0.85190
O          1.24947        0.02762       -0.87727
O          3.58747        0.13280       -1.45334
H          4.44637        0.49315       -1.19358
S         -3.06094       -0.46091       -0.16284
O         -3.17046        0.78673       -0.95087
O         -2.77534       -1.65716       -0.95563
O         -2.17588       -0.30242        1.01554
O         -4.51810       -0.68040        0.52606
H         -5.16022       -0.83713       -0.17943
H         -0.48986       -3.91277        0.68821
H         -0.61429       -3.04930       -0.86394
H          1.43205       -4.60243       -0.68313
H          1.83676       -2.92533       -1.04586
H          2.76545       -4.36239        1.12386
H          2.85734       -2.72261        0.95259
H         -0.89857       -1.50174        1.00027
H          0.62830       -1.99884        1.57888
C         -0.00671       -3.18603        0.03185
C          1.43645       -3.58984       -0.27009
N          0.03454       -1.88959        0.75134
N          2.22986       -3.52200        0.95702
H          0.48657       -1.17627        0.14524
H          0.83102        3.09082       -1.14427
H         -0.79550        3.69990       -1.53644
H          0.47741        5.02919        0.25095
H         -1.12137        4.46892        0.76609
H          1.37562        3.05200        1.42577
H          0.34141        3.80584        2.48339
H         -0.11965        1.16967       -0.74120
H         -0.67226        1.85503        0.64735
C         -0.17590        3.25552       -0.75677
C         -0.11361        4.13581        0.49454
N         -0.72749        1.92595       -0.38217
N          0.41119        3.33382        1.59152
H         -1.70630        1.72937       -0.67497
