34
2sa2dma_20.log	Energy: -1048358.5686668
S          2.22944        0.30155       -0.45402
O          1.41492        0.23304        0.82953
O          2.35626        1.69069       -0.88898
O          3.41456       -0.53291       -0.40457
O          1.27564       -0.46393       -1.52778
H          0.41843        0.00873       -1.60225
S         -2.13371       -0.34267       -0.55891
O         -1.71160       -1.70330       -0.94008
O         -2.30952       -0.12155        0.87397
O         -1.28802        0.69907       -1.21279
O         -3.62050       -0.14454       -1.16902
H         -3.59823       -0.37233       -2.10879
N          0.40118       -2.30578        0.77756
C          1.49434       -3.22312        0.38381
C         -0.33511       -2.69357        1.99940
H          0.79714       -1.34022        0.90115
H          1.07969       -4.21659        0.20595
H          1.96104       -2.83040       -0.51897
H          2.23419       -3.25804        1.18398
H         -0.77236       -3.68310        1.85801
H          0.35647       -2.70748        2.84310
H         -1.12689       -1.96139        2.16373
H         -0.28346       -2.20802        0.00289
N         -0.25043        2.41465        0.75293
C          0.33501        3.68445        0.26705
C         -1.04595        2.54377        1.99320
H         -0.82233        1.97751        0.00597
H          0.98737        4.09023        1.04131
H          0.92534        3.46891       -0.62192
H         -0.47038        4.38802        0.04971
H         -0.38909        2.87437        2.79907
H         -1.83860        3.27713        1.83637
H         -1.48651        1.57376        2.21820
H          0.49754        1.69318        0.89289
