14
2sa_01.log	Energy: -878690.0009547
H          2.62934        1.84032        0.62642
H          0.52434       -0.56709        1.29888
H         -2.62931        1.84039       -0.62624
H         -0.52434       -0.56694       -1.29894
O          1.91331        1.50252        0.06758
O          1.51445       -0.64341        1.26693
O          1.14268       -0.41076       -1.16925
O          3.45388       -0.43544       -0.17552
O         -1.91329        1.50253       -0.06743
O         -1.51445       -0.64328       -1.26699
O         -1.14269       -0.41089        1.16922
O         -3.45389       -0.43544        0.17546
S          2.06595       -0.08603       -0.09602
S         -2.06595       -0.08604        0.09601
