26
2tma_01.log	Energy: -218922.2790679
N          1.54242       -0.00077        0.00049
C          1.96248        0.61616       -1.24151
H          1.56640        0.04805       -2.08930
H          1.56337        1.63363       -1.30221
H          3.06380        0.66959       -1.34504
C          1.96800        0.76513        1.15470
H          1.57022        1.78290        1.08969
H          1.57426        0.30739        2.06778
H          3.06976        0.82927        1.24675
C          1.96104       -1.38539        0.08555
H          1.56527       -1.83524        1.00164
H          1.56103       -1.94585       -0.76554
H          3.06225       -1.50265        0.09005
N         -2.28266        0.00266        0.00008
C         -1.84442       -0.61316        1.24089
H         -2.23383       -0.04436        2.09145
H         -2.24238       -1.63081        1.30658
H         -0.74322       -0.65900        1.32269
C         -1.84318       -0.76660       -1.15170
H         -2.23900       -1.78510       -1.08598
H         -2.23389       -0.31238       -2.06794
H         -0.74179       -0.82023       -1.22713
C         -1.83617        1.38279       -0.08824
H         -2.22598        1.83767       -1.00453
H         -2.22668        1.95119        0.76204
H         -0.73442        1.46916       -0.09314
