26
2tma_03.log	Energy: -218920.8841752
N         -2.57446        0.15512       -0.31571
C         -3.13920       -0.77283        0.64563
H         -3.79558       -0.23609        1.33695
H         -3.73655       -1.52833        0.12662
H         -2.36290       -1.29453        1.24027
C         -1.75211       -0.53404       -1.29172
H         -2.35107       -1.28234       -1.81946
H         -1.37375        0.18054       -2.02938
H         -0.88293       -1.04677       -0.83454
C         -1.83949        1.21603        0.34744
H         -1.45260        1.92039       -0.39544
H         -2.50593        1.76357        1.02055
H         -0.98360        0.83776        0.93916
N          2.57509        0.17544        0.30450
C          1.75391       -0.44894        1.32400
H          2.35392       -1.16108        1.89842
H          1.37582        0.31131        2.01467
H          0.88500       -0.99077        0.90121
C          1.83876        1.19146       -0.42441
H          1.45662        1.94376        0.27247
H          2.50292        1.69132       -1.13578
H          0.97949        0.77559       -0.98488
C          3.13773       -0.81320       -0.59565
H          3.79209       -0.32344       -1.32285
H          3.73700       -1.53214       -0.02911
H          2.36001       -1.37356       -1.15218
