26
2tma_02.log	Energy: -218923.6360565
N         -1.75596       -0.00551       -0.07216
C         -1.65659        1.26872        0.61591
H         -0.66567        1.36076        1.06873
H         -1.79028        2.08853       -0.09736
H         -2.41777        1.37852        1.41364
C         -3.05133       -0.16225       -0.70606
H         -3.21697        0.64824       -1.42255
H         -3.08655       -1.11076       -1.25062
H         -3.88463       -0.15336        0.02428
C         -1.47291       -1.10377        0.83537
H         -1.49728       -2.05239        0.28953
H         -0.47180       -0.97192        1.25570
H         -2.20591       -1.16530        1.66380
N          1.75596       -0.00551        0.07216
C          1.65661        1.26873       -0.61591
H          0.66569        1.36078       -1.06874
H          1.79029        2.08853        0.09738
H          2.41780        1.37853       -1.41362
C          3.05132       -0.16227        0.70607
H          3.21696        0.64821        1.42257
H          3.08652       -1.11078        1.25063
H          3.88462       -0.15338       -0.02426
C          1.47291       -1.10376       -0.83538
H          1.49726       -2.05239       -0.28955
H          0.47181       -0.97190       -1.25572
H          2.20592       -1.16529       -1.66381
